----- GAMESS execution script 'rungms' -----
This job is running on host chemcompute-node-0.novalocal
under operating system Linux at Fri Nov 12 21:05:09 UTC 2021
SLURM has assigned the following compute nodes to this run:
chemcompute-node-0
Available scratch disk space (Kbyte units) at beginning of the job is
Filesystem     1K-blocks     Used Available Use% Mounted on
/dev/sda1       62903276 16681532  46221744  27% /
GAMESS temporary binary files will be written to /scratch/305545
GAMESS supplementary output files will be written to /data/slurm/341406
Copying input file 341406.inp to your run's scratch directory...
The generated host list is
chemcompute-node-0.novalocal

 Distributed Data Interface kickoff program.
 Initiating 1 compute processes on 1 nodes to run the following command:
 /data/gamess-2019R1-ddi/gamess.00.x 341406 

          ******************************************************
          *         GAMESS VERSION = 30 JUN 2019 (R1)          *
          *             FROM IOWA STATE UNIVERSITY             *
          * M.W.SCHMIDT, K.K.BALDRIDGE, J.A.BOATZ, S.T.ELBERT, *
          *   M.S.GORDON, J.H.JENSEN, S.KOSEKI, N.MATSUNAGA,   *
          *          K.A.NGUYEN, S.J.SU, T.L.WINDUS,           *
          *       TOGETHER WITH M.DUPUIS, J.A.MONTGOMERY       *
          *         J.COMPUT.CHEM.  14, 1347-1363(1993)        *
          **************** 64 BIT LINUX VERSION ****************

  SINCE 1993, STUDENTS AND POSTDOCS WORKING AT IOWA STATE UNIVERSITY
  AND ALSO IN THEIR VARIOUS JOBS AFTER LEAVING ISU HAVE MADE IMPORTANT
  CONTRIBUTIONS TO THE CODE:
     IVANA ADAMOVIC, CHRISTINE AIKENS, YURI ALEXEEV, POOJA ARORA,
     ANDREY ASADCHEV, ROB BELL, PRADIPTA BANDYOPADHYAY, JONATHAN BENTZ,
     COLLEEN BERTONI, BRETT BODE, KURT BRORSEN, CALEB CARLIN, GALINA CHABAN,
     WEI CHEN, CHEOL HO CHOI, PAUL DAY, ALBERT DEFUSCO, NUWAN DESILVA,
     TIM DUDLEY, DMITRI FEDOROV, ALEX FINDLATER, GRAHAM FLETCHER, 
     MARK FREITAG, KURT GLAESEMANN, ANASTASIA GUNINA,
     DAN KEMP, GRANT MERRILL, NORIYUKI MINEZAWA, JONATHAN MULLIN,
     TAKESHI NAGATA, SEAN NEDD, HEATHER NETZLOFF, BOSILJKA NJEGIC, RYAN OLSON,
     MIKE PAK, BUU PHAM,
     SPENCER PRUITT, LUKE ROSKOP, JIM SHOEMAKER, LYUDMILA SLIPCHENKO,
     TONY SMITH, SAROM SOK LEANG, JIE SONG, TETSUYA TAKETSUGU, SIMON WEBB,
     PENG XU, SOOHAENG YOO, FEDERICO ZAHARIEV

  ADDITIONAL CODE HAS BEEN PROVIDED BY COLLABORATORS IN OTHER GROUPS:
     IOWA STATE UNIVERSITY:
          JOE IVANIC, AARON WEST, LAIMUTIS BYTAUTAS, KLAUS RUEDENBERG
     UNIVERSITY OF TOKYO: KIMIHIKO HIRAO, TAKAHITO NAKAJIMA,
          TAKAO TSUNEDA, MUNEAKI KAMIYA, SUSUMU YANAGISAWA,
          KIYOSHI YAGI, MAHITO CHIBA, SEIKEN TOKURA, NAOAKI KAWAKAMI
     UNIVERSITY OF AARHUS: FRANK JENSEN
     UNIVERSITY OF IOWA: VISVALDAS KAIRYS, HUI LI
     NATIONAL INST. OF STANDARDS AND TECHNOLOGY: WALT STEVENS, DAVID GARMER
     UNIVERSITY OF PISA: BENEDETTA MENNUCCI, JACOPO TOMASI
     UNIVERSITY OF MEMPHIS: HENRY KURTZ, PRAKASHAN KORAMBATH
     UNIVERSITY OF ALBERTA: TOBY ZENG, MARIUSZ KLOBUKOWSKI
     UNIVERSITY OF NEW ENGLAND: MARK SPACKMAN
     MIE UNIVERSITY: HIROAKI UMEDA
     NAT. INST. OF ADVANCED INDUSTRIAL SCIENCE AND TECHNOLOGY: KAZUO KITAURA
     MICHIGAN STATE UNIVERSITY:
          KAROL KOWALSKI, MARTA WLOCH, JEFFREY GOUR, JESSE LUTZ,
          WEI LI, JUN SHEN, J. EMILIANO DEUSTUA, PIOTR PIECUCH
     UNIVERSITY OF MINNESOTA:
          YINAN SHU
     UNIVERSITY OF SILESIA: MONIKA MUSIAL, STANISLAW KUCHARSKI
     FACULTES UNIVERSITAIRES NOTRE-DAME DE LA PAIX:
          OLIVIER QUINET, BENOIT CHAMPAGNE
     UNIVERSITY OF CALIFORNIA - SANTA BARBARA: BERNARD KIRTMAN
     INSTITUTE FOR MOLECULAR SCIENCE:
          KAZUYA ISHIMURA, MICHIO KATOUDA, AND SHIGERU NAGASE
     UNIVERSITY OF NOTRE DAME: ANNA POMOGAEVA, DAN CHIPMAN
     KYUSHU UNIVERSITY:
          HARUYUKI NAKANO,
          FENG LONG GU, JACEK KORCHOWIEC, MARCIN MAKOWSKI, AND YURIKO AOKI,
          HIROTOSHI MORI AND EISAKU MIYOSHI
     PENNSYLVANIA STATE UNIVERSITY:
          TZVETELIN IORDANOV, CHET SWALINA, JONATHAN SKONE,
          SHARON HAMMES-SCHIFFER
     WASEDA UNIVERSITY:
          MASATO KOBAYASHI, TOMOKO AKAMA, TSUGUKI TOUMA,
          TAKESHI YOSHIKAWA, YASUHIRO IKABATA, JUNJI SEINO,
          YUYA NAKAJIMA, HIROMI NAKAI
     NANJING UNIVERSITY: SHUHUA LI
     UNIVERSITY OF NEBRASKA:
          PEIFENG SU, DEJUN SI, NANDUN THELLAMUREGE, YALI WANG, HUI LI
     UNIVERSITY OF ZURICH: ROBERTO PEVERATI, KIM BALDRIDGE
     N. COPERNICUS UNIVERSITY AND JACKSON STATE UNIVERSITY:
          MARIA BARYSZ
     UNIVERSITY OF COPENHAGEN: Jimmy Kromann, CASPER STEINMANN
     TOKYO INSTITUTE OF TECHNOLOGY: HIROYA NAKATA
     NAGOYA UNIVERSITY: YOSHIO NISHIMOTO, STEPHAN IRLE
     MOSCOW STATE UNIVERSITY: VLADIMIR MIRONOV
     A.N.NESMEYANOV INSTITUTE OF ORGANOELEMENT COMPOUNDS OF RUSSIAN ACADEMY OF SCIENCES:
          IGOR S. GERASIMOV

 EXECUTION OF GAMESS BEGUN Fri Nov 12 21:05:10 2021

            ECHO OF THE FIRST FEW INPUT CARDS -
 INPUT CARD>!File created by the GAMESS Input Deck Generator Plugin for Avogadro            
 INPUT CARD> $BASIS GBASIS=STO NGAUSS=3 $END                                                
 INPUT CARD> $CONTRL SCFTYP=RHF RUNTYP=OPTIMIZE NZVAR=1 mult=1  ICHARG=0 $END               
 INPUT CARD> $STATPT hssend=.t. OPTTOL=0.0005 NSTEP=50 $END                                 
 INPUT CARD> $STATPT HESS=calc ihrep=5 $END                                                 
 INPUT CARD> $FORCE nvib=2 $END                                                             
 INPUT CARD> $ZMAT DLC=.t. auto=.t. nonvdw(1)=1,6,3,4 $END                                  
 INPUT CARD> $ZMAT IFZMAT(1)=1,1,6,1,3,4 fvalue(1)=2.00,2.00 $END                           
 INPUT CARD>                                                                                
 INPUT CARD> $DATA                                                                          
 INPUT CARD>Title                                                                           
 INPUT CARD>C1                                                                              
 INPUT CARD>C     6.0     0.78602999    -1.67941999    -3.27028990                          
 INPUT CARD>C     6.0    -0.26585001    -1.91141999    -2.44409990                          
 INPUT CARD>C     6.0    -0.82138997    -0.79499000    -1.60112000                          
 INPUT CARD>C     6.0     0.74558997    -0.01013000    -0.64095998                          
 INPUT CARD>C     6.0     1.84967995    -0.98821002    -0.93168002                          
 INPUT CARD>C     6.0     2.33171010    -0.98268998    -2.20451999                          
 INPUT CARD>C     6.0     2.61705995     0.36254001    -2.75812006                          
 INPUT CARD>C     6.0     1.97873998     1.46876001    -2.34967995                          
 INPUT CARD>C     6.0     0.94501001     1.34941995    -1.28912997                          
 INPUT CARD>O     8.0     0.26388001     2.32963991    -0.99449998                          
 INPUT CARD>H     1.0     1.22047997    -2.52987003    -3.80141997                          
 INPUT CARD>H     1.0     0.76977003    -0.72113001    -3.80125999                          
 INPUT CARD>H     1.0    -0.50413001    -2.92938995    -2.14633989                          
 INPUT CARD>H     1.0    -1.45081997    -1.16232002    -0.78583997                          
 INPUT CARD>H     1.0    -1.28385997     0.02457000    -2.15582991                          
 INPUT CARD>H     1.0     0.45409000     0.06230000     0.40909001                          
 INPUT CARD>H     1.0     1.92756999    -1.87943995    -0.31665999                          
 INPUT CARD>H     1.0     3.03723001    -1.76932001    -2.49527001                          
 INPUT CARD>H     1.0     3.38531995     0.42025000    -3.52466989                          
 INPUT CARD>H     1.0     2.16968989     2.45268989    -2.75567007                          
 INPUT CARD> $END                                                                           
    1000000 WORDS OF MEMORY AVAILABLE

     BASIS OPTIONS
     -------------
     GBASIS=STO          IGAUSS=       3      POLAR=NONE    
     NDFUNC=       0     NFFUNC=       0     DIFFSP=       F
     NPFUNC=       0      DIFFS=       F     BASNAM=        


     RUN TITLE
     ---------
 Title                                                                           

 THE POINT GROUP OF THE MOLECULE IS C1      
 THE ORDER OF THE PRINCIPAL AXIS IS     0

 ATOM      ATOMIC                      COORDINATES (BOHR)
           CHARGE         X                   Y                   Z
 C           6.0     1.4853812992       -3.1736435994       -6.1799518114
 C           6.0    -0.5023836727       -3.6120600286       -4.6186790976
 C           6.0    -1.5522019724       -1.5023132630       -3.0256780735
 C           6.0     1.4089607425       -0.0191429243       -1.2112387313
 C           6.0     3.4953882705       -1.8674461561       -1.7606199460
 C           6.0     4.4062931718       -1.8570147931       -4.1659387156
 C           6.0     4.9455261989        0.6851012785       -5.2120911546
 C           6.0     3.7392763632        2.7755539606       -4.4402512643
 C           6.0     1.7858099746        2.5500339479       -2.4361024059
 O           8.0     0.4986609125        4.4023810800       -1.8793324570
 H           1.0     2.3063727168       -4.7807611412       -7.1836421076
 H           1.0     1.4546544303       -1.3627381204       -7.1833397892
 H           1.0    -0.9526675811       -5.5357443167       -4.0559942686
 H           1.0    -2.7416522008       -2.1964663478       -1.4850222135
 H           1.0    -2.4261435499        0.0464305675       -4.0739278060
 H           1.0     0.8581056738        0.1177299290        0.7730680232
 H           1.0     3.6425791033       -3.5516265159       -0.5984006124
 H           1.0     5.7395324806       -3.3435300035       -4.7153765843
 H           1.0     6.3973270863        0.7941573463       -6.6606602893
 H           1.0     4.1001193704        4.6349118250       -5.2074613449

          INTERNUCLEAR DISTANCES (ANGS.)
          ------------------------------

                1 C          2 C          3 C          4 C          5 C     

   1 C       0.0000000    1.3575218 *  2.4803515 *  3.1147296    2.6604922 *
   2 C       1.3575218 *  0.0000000    1.5052095 *  2.8087770 *  2.7595647 *
   3 C       2.4803515 *  1.5052095 *  0.0000000    1.9983340 *  2.7604526 *
   4 C       3.1147296    2.8087770 *  1.9983340 *  0.0000000    1.5033873 *
   5 C       2.6604922 *  2.7595647 *  2.7604526 *  1.5033873 *  0.0000000  
   6 C       2.0026046 *  2.7689811 *  3.2157989    2.4303024 *  1.3610676 *
   7 C       2.7900877 *  3.6851964    3.8080786    2.8502017 *  2.3977658 *
   8 C       3.4901457    4.0586594    3.6777213    2.5743928 *  2.8397327 *
   9 C       3.6227256    3.6651350    2.7957111 *  1.5192988 *  2.5319384 *
  10 O       4.6394420    4.5131522    3.3629021    2.4148620 *  3.6778847  
  11 H       1.0927540 *  2.1057006 *  3.4670393    4.0697810    3.3178330  
  12 H       1.0956794 *  2.0811493 *  2.7162219 *  3.2393829    3.0776657  
  13 H       2.1190095 *  1.0870608 *  2.2256643 *  3.5142634    3.2839000  
  14 H       3.3828068    2.1714351 *  1.0935241 *  2.4845017 *  3.3083052  
  15 H       2.9034544 *  2.2062414 *  1.0923645 *  2.5327262 *  3.5133088  
  16 H       4.0843126    3.5432438    2.5303635 *  1.0921645 *  2.2020234 *
  17 H       3.1728617    3.0558329    3.2222120    2.2353002 *  1.0856368 *
  18 H       2.3825699 *  3.3065312    4.0789424    3.4329039    2.1131071 *
  19 H       3.3510642    4.4649030    4.7825998    3.9330884    3.3264916  
  20 H       4.3879016    5.0074330    4.5636574    3.5447907    3.9075745  

                6 C          7 C          8 C          9 C         10 O     

   1 C       2.0026046 *  2.7900877 *  3.4901457    3.6227256    4.6394420  
   2 C       2.7689811 *  3.6851964    4.0586594    3.6651350    4.5131522  
   3 C       3.2157989    3.8080786    3.6777213    2.7957111 *  3.3629021  
   4 C       2.4303024 *  2.8502017 *  2.5743928 *  1.5192988 *  2.4148620 *
   5 C       1.3610676 *  2.3977658 *  2.8397327 *  2.5319384 *  3.6778847  
   6 C       0.0000000    1.4824106 *  2.4809809 *  2.8634966 *  4.0879823  
   7 C       1.4824106 *  0.0000000    1.3408946 *  2.4346694 *  3.5379787  
   8 C       2.4809809 *  1.3408946 *  0.0000000    1.4858015 *  2.3491215 *
   9 C       2.8634966 *  2.4346694 *  1.4858015 *  0.0000000    1.2294617 *
  10 O       4.0879823    3.5379787    2.3491215 *  1.2294617 *  0.0000000  
  11 H       2.4856967 *  3.3771210    4.3210588    4.6299434    5.6928657  
  12 H       2.2489217 *  2.3822178 *  2.8921119 *  3.2601662    4.1762452  
  13 H       3.4402056    4.5774343    5.0546725    4.5981550    5.4381954  
  14 H       4.0438167    4.7710307    4.5967444    3.5074406    3.8958336  
  15 H       3.7535703    3.9615847    3.5732088    2.7339088 *  3.0095736  
  16 H       3.3835512    3.8470512    3.4515937    2.1866942 *  2.6734014 *
  17 H       2.1287332 *  3.3856458    3.9174266    3.5123579    4.5764271  
  18 H       1.0959383 *  2.1887120 *  3.4098035    3.9444515    5.1715813  
  19 H       2.1957072 *  1.0868084 *  2.1115023 *  3.4374566    4.4486983  
  20 H       3.4830808    2.1374921 *  1.0813916 *  2.2063058 *  2.5978785 *

               11 H         12 H         13 H         14 H         15 H     

   1 C       1.0927540 *  1.0956794 *  2.1190095 *  3.3828068    2.9034544 *
   2 C       2.1057006 *  2.0811493 *  1.0870608 *  2.1714351 *  2.2062414 *
   3 C       3.4670393    2.7162219 *  2.2256643 *  1.0935241 *  1.0923645 *
   4 C       4.0697810    3.2393829    3.5142634    2.4845017 *  2.5327262 *
   5 C       3.3178330    3.0776657    3.2839000    3.3083052    3.5133088  
   6 C       2.4856967 *  2.2489217 *  3.4402056    4.0438167    3.7535703  
   7 C       3.3771210    2.3822178 *  4.5774343    4.7710307    3.9615847  
   8 C       4.3210588    2.8921119 *  5.0546725    4.5967444    3.5732088  
   9 C       4.6299434    3.2601662    4.5981550    3.5074406    2.7339088 *
  10 O       5.6928657    4.1762452    5.4381954    3.8958336    3.0095736  
  11 H       0.0000000    1.8640493 *  2.4234657 *  4.2543812    3.9376197  
  12 H       1.8640493 *  0.0000000    3.0394068    3.7707329    2.7351243 *
  13 H       2.4234657 *  3.0394068    0.0000000    2.4227501 *  3.0551511  
  14 H       4.2543812    3.7707329    2.4227501 *  0.0000000    1.8202901 *
  15 H       3.9376197    2.7351243 *  3.0551511    1.8202901 *  0.0000000  
  16 H       5.0035081    4.2942361    4.0495205    2.5605144 *  3.0985009  
  17 H       3.6147735    3.8502753    3.2192062    3.4853851    4.1618604  
  18 H       2.3632699 *  2.8188095 *  3.7428258    4.8407843    4.6909572  
  19 H       3.6696500    2.8671156 *  5.3148568    5.7787513    4.8817545  
  20 H       5.1788508    3.6230052    6.0404784    5.4823917    4.2641038  

               16 H         17 H         18 H         19 H         20 H     

   1 C       4.0843126    3.1728617    2.3825699 *  3.3510642    4.3879016  
   2 C       3.5432438    3.0558329    3.3065312    4.4649030    5.0074330  
   3 C       2.5303635 *  3.2222120    4.0789424    4.7825998    4.5636574  
   4 C       1.0921645 *  2.2353002 *  3.4329039    3.9330884    3.5447907  
   5 C       2.2020234 *  1.0856368 *  2.1131071 *  3.3264916    3.9075745  
   6 C       3.3835512    2.1287332 *  1.0959383 *  2.1957072 *  3.4830808  
   7 C       3.8470512    3.3856458    2.1887120 *  1.0868084 *  2.1374921 *
   8 C       3.4515937    3.9174266    3.4098035    2.1115023 *  1.0813916 *
   9 C       2.1866942 *  3.5123579    3.9444515    3.4374566    2.2063058 *
  10 O       2.6734014 *  4.5764271    5.1715813    4.4486983    2.5978785 *
  11 H       5.0035081    3.6147735    2.3632699 *  3.6696500    5.1788508  
  12 H       4.2942361    3.8502753    2.8188095 *  2.8671156 *  3.6230052  
  13 H       4.0495205    3.2192062    3.7428258    5.3148568    6.0404784  
  14 H       2.5605144 *  3.4853851    4.8407843    5.7787513    5.4823917  
  15 H       3.0985009    4.1618604    4.6909572    4.8817545    4.2641038  
  16 H       0.0000000    2.5432677 *  4.2968304    4.9188113    4.3212213  
  17 H       2.5432677 *  0.0000000    2.4474095 *  4.2077234    4.9774231  
  18 H       4.2968304    2.4474095 *  0.0000000    2.4443910 *  4.3180785  
  19 H       4.9188113    4.2077234    2.4443910 *  0.0000000    2.4899657 *
  20 H       4.3212213    4.9774231    4.3180785    2.4899657 *  0.0000000  

  * ... LESS THAN  3.000


     ATOMIC BASIS SET
     ----------------
 THE CONTRACTED PRIMITIVE FUNCTIONS HAVE BEEN UNNORMALIZED
 THE CONTRACTED BASIS FUNCTIONS ARE NOW NORMALIZED TO UNITY

  SHELL TYPE  PRIMITIVE        EXPONENT          CONTRACTION COEFFICIENT(S)

 C         

      1   S       1            71.6168373    0.154328967295
      1   S       2            13.0450963    0.535328142282
      1   S       3             3.5305122    0.444634542185

      2   L       4             2.9412494   -0.099967229187    0.155916274999
      2   L       5             0.6834831    0.399512826089    0.607683718598
      2   L       6             0.2222899    0.700115468880    0.391957393099

 C         

      3   S       7            71.6168373    0.154328967295
      3   S       8            13.0450963    0.535328142282
      3   S       9             3.5305122    0.444634542185

      4   L      10             2.9412494   -0.099967229187    0.155916274999
      4   L      11             0.6834831    0.399512826089    0.607683718598
      4   L      12             0.2222899    0.700115468880    0.391957393099

 C         

      5   S      13            71.6168373    0.154328967295
      5   S      14            13.0450963    0.535328142282
      5   S      15             3.5305122    0.444634542185

      6   L      16             2.9412494   -0.099967229187    0.155916274999
      6   L      17             0.6834831    0.399512826089    0.607683718598
      6   L      18             0.2222899    0.700115468880    0.391957393099

 C         

      7   S      19            71.6168373    0.154328967295
      7   S      20            13.0450963    0.535328142282
      7   S      21             3.5305122    0.444634542185

      8   L      22             2.9412494   -0.099967229187    0.155916274999
      8   L      23             0.6834831    0.399512826089    0.607683718598
      8   L      24             0.2222899    0.700115468880    0.391957393099

 C         

      9   S      25            71.6168373    0.154328967295
      9   S      26            13.0450963    0.535328142282
      9   S      27             3.5305122    0.444634542185

     10   L      28             2.9412494   -0.099967229187    0.155916274999
     10   L      29             0.6834831    0.399512826089    0.607683718598
     10   L      30             0.2222899    0.700115468880    0.391957393099

 C         

     11   S      31            71.6168373    0.154328967295
     11   S      32            13.0450963    0.535328142282
     11   S      33             3.5305122    0.444634542185

     12   L      34             2.9412494   -0.099967229187    0.155916274999
     12   L      35             0.6834831    0.399512826089    0.607683718598
     12   L      36             0.2222899    0.700115468880    0.391957393099

 C         

     13   S      37            71.6168373    0.154328967295
     13   S      38            13.0450963    0.535328142282
     13   S      39             3.5305122    0.444634542185

     14   L      40             2.9412494   -0.099967229187    0.155916274999
     14   L      41             0.6834831    0.399512826089    0.607683718598
     14   L      42             0.2222899    0.700115468880    0.391957393099

 C         

     15   S      43            71.6168373    0.154328967295
     15   S      44            13.0450963    0.535328142282
     15   S      45             3.5305122    0.444634542185

     16   L      46             2.9412494   -0.099967229187    0.155916274999
     16   L      47             0.6834831    0.399512826089    0.607683718598
     16   L      48             0.2222899    0.700115468880    0.391957393099

 C         

     17   S      49            71.6168373    0.154328967295
     17   S      50            13.0450963    0.535328142282
     17   S      51             3.5305122    0.444634542185

     18   L      52             2.9412494   -0.099967229187    0.155916274999
     18   L      53             0.6834831    0.399512826089    0.607683718598
     18   L      54             0.2222899    0.700115468880    0.391957393099

 O         

     19   S      55           130.7093214    0.154328967295
     19   S      56            23.8088661    0.535328142282
     19   S      57             6.4436083    0.444634542185

     20   L      58             5.0331513   -0.099967229187    0.155916274999
     20   L      59             1.1695961    0.399512826089    0.607683718598
     20   L      60             0.3803890    0.700115468880    0.391957393099

 H         

     21   S      61             3.4252509    0.154328967295
     21   S      62             0.6239137    0.535328142282
     21   S      63             0.1688554    0.444634542185

 H         

     22   S      64             3.4252509    0.154328967295
     22   S      65             0.6239137    0.535328142282
     22   S      66             0.1688554    0.444634542185

 H         

     23   S      67             3.4252509    0.154328967295
     23   S      68             0.6239137    0.535328142282
     23   S      69             0.1688554    0.444634542185

 H         

     24   S      70             3.4252509    0.154328967295
     24   S      71             0.6239137    0.535328142282
     24   S      72             0.1688554    0.444634542185

 H         

     25   S      73             3.4252509    0.154328967295
     25   S      74             0.6239137    0.535328142282
     25   S      75             0.1688554    0.444634542185

 H         

     26   S      76             3.4252509    0.154328967295
     26   S      77             0.6239137    0.535328142282
     26   S      78             0.1688554    0.444634542185

 H         

     27   S      79             3.4252509    0.154328967295
     27   S      80             0.6239137    0.535328142282
     27   S      81             0.1688554    0.444634542185

 H         

     28   S      82             3.4252509    0.154328967295
     28   S      83             0.6239137    0.535328142282
     28   S      84             0.1688554    0.444634542185

 H         

     29   S      85             3.4252509    0.154328967295
     29   S      86             0.6239137    0.535328142282
     29   S      87             0.1688554    0.444634542185

 H         

     30   S      88             3.4252509    0.154328967295
     30   S      89             0.6239137    0.535328142282
     30   S      90             0.1688554    0.444634542185

 TOTAL NUMBER OF BASIS SET SHELLS             =   30
 NUMBER OF CARTESIAN GAUSSIAN BASIS FUNCTIONS =   60
 NUMBER OF ELECTRONS                          =   72
 CHARGE OF MOLECULE                           =    0
 SPIN MULTIPLICITY                            =    1
 NUMBER OF OCCUPIED ORBITALS (ALPHA)          =   36
 NUMBER OF OCCUPIED ORBITALS (BETA )          =   36
 TOTAL NUMBER OF ATOMS                        =   20
 THE NUCLEAR REPULSION ENERGY IS      505.4304110575

     $CONTRL OPTIONS
     ---------------
 SCFTYP=RHF          RUNTYP=OPTIMIZE     EXETYP=RUN     
 MPLEVL=       0     CITYP =NONE         CCTYP =NONE         VBTYP =NONE    
 DFTTYP=NONE         TDDFT =NONE    
 MULT  =       1     ICHARG=       0     NZVAR =       1     COORD =UNIQUE  
 PP    =NONE         RELWFN=NONE         LOCAL =NONE         NUMGRD=       F
 ISPHER=      -1     NOSYM =       0     MAXIT =      30     UNITS =ANGS    
 PLTORB=       F     MOLPLT=       F     AIMPAC=       F     FRIEND=        
 NPRINT=       7     IREST =       0     GEOM  =INPUT   
 NORMF =       0     NORMP =       0     ITOL  =      20     ICUT  =       9
 INTTYP=BEST         GRDTYP=BEST         QMTTOL= 1.0E-06

     $SYSTEM OPTIONS
     ---------------
  REPLICATED MEMORY=     1000000 WORDS (ON EVERY NODE).
 DISTRIBUTED MEMDDI=           0 MILLION WORDS IN AGGREGATE,
 MEMDDI DISTRIBUTED OVER   1 PROCESSORS IS           0 WORDS/PROCESSOR.
 TOTAL MEMORY REQUESTED ON EACH PROCESSOR=     1000000 WORDS.
 TIMLIM=      525600.00 MINUTES, OR     365.0 DAYS.
 PARALL= F  BALTYP=  DLB     KDIAG=    0  COREFL= F
 MXSEQ2=     300 MXSEQ3=     150  mem10=         0

          ----------------
          PROPERTIES INPUT
          ----------------

     MOMENTS            FIELD           POTENTIAL          DENSITY
 IEMOM =       1   IEFLD =       0   IEPOT =       0   IEDEN =       0
 WHERE =COMASS     WHERE =NUCLEI     WHERE =NUCLEI     WHERE =NUCLEI  
 OUTPUT=BOTH       OUTPUT=BOTH       OUTPUT=BOTH       OUTPUT=BOTH    
 IEMINT=       0   IEFINT=       0                     IEDINT=       0
                                                       MORB  =       0
          EXTRAPOLATION IN EFFECT
          SOSCF IN EFFECT
 ORBITAL PRINTING OPTION: NPREO=     1    60     2     1

     -------------------------------
     INTEGRAL TRANSFORMATION OPTIONS
     -------------------------------
     NWORD  =            0
     CUTOFF = 1.0E-09     MPTRAN =       0
     DIRTRF =       F     AOINTS =DUP     

          ----------------------
          INTEGRAL INPUT OPTIONS
          ----------------------
 NOPK  =       1 NORDER=       0 SCHWRZ=       T


 -----------------------------------------------
  STATISTICS ON AUTOMATIC COORDINATE GENERATION 
 -----------------------------------------------
  NUMBER OF USER SPECIFIED BONDS                             2
  NUMBER OF BONDS                                           21
  NUMBER OF ANGLES                                          39
  NUMBER OF TORSIONS                                        62
  NUMBER OF EXTRA COORD.                                     0
  NUMBER OF EXTRA COORD. FOR CONSTRAINTS                     0
  NUMBER OF CONSTRAINED COORD.                               2

  TOTAL NUMBER OF PRIMITIVES                               122
 -----------------------------------------------

   --- ENCODED Z MATRIX ---
 COORD  TYPE   I   J   K   L   M   N
    1      1    1   6
    2      1    3   4
    3      1    1   2
    4      1    1  12
    5      1    1  11
    6      1    2  13
    7      1    2   3
    8      1    3  14
    9      1    3  15
   10      1    4   9
   11      1    4   5
   12      1    4  16
   13      1    5   6
   14      1    5  17
   15      1    6   7
   16      1    6  18
   17      1    7   8
   18      1    7  19
   19      1    8  20
   20      1    8   9
   21      1    9  10
   22      2    1   2  13
   23      2    1   6   7
   24      2    1   6   5
   25      2    1   6  18
   26      2    1   2   3
   27      2    2   1  12
   28      2    2   1  11
   29      2    2   3  15
   30      2    2   3   4
   31      2    2   1   6
   32      2    2   3  14
   33      2    3   2  13
   34      2    3   4  16
   35      2    3   4   5
   36      2    3   4   9
   37      2    4   5  17
   38      2    4   5   6
   39      2    4   9  10
   40      2    4   9   8
   41      2    4   3  15
   42      2    4   3  14
   43      2    5   6   7
   44      2    5   4  16
   45      2    5   4   9
   46      2    5   6  18
   47      2    6   5  17
   48      2    6   1  12
   49      2    6   1  11
   50      2    6   7  19
   51      2    6   7   8
   52      2    7   8  20
   53      2    7   8   9
   54      2    7   6  18
   55      2    8   9  10
   56      2    8   7  19
   57      2    9   4  16
   58      2    9   8  20
   59      2   11   1  12
   60      2   14   3  15
   61      3    1   6   5  17
   62      3    1   6   5   4
   63      3    1   2   3  15
   64      3    1   2   3   4
   65      3    1   2   3  14
   66      3    1   6   7   8
   67      3    1   6   7  19
   68      3    2   3   4   9
   69      3    2   1   6  18
   70      3    2   1   6   5
   71      3    2   1   6   7
   72      3    2   3   4  16
   73      3    2   3   4   5
   74      3    3   4   9  10
   75      3    3   4   9   8
   76      3    3   4   5  17
   77      3    3   4   5   6
   78      3    3   2   1  11
   79      3    3   2   1   6
   80      3    3   2   1  12
   81      3    4   3   2  13
   82      3    4   9   8  20
   83      3    4   9   8   7
   84      3    4   5   6  18
   85      3    4   5   6   7
   86      3    5   4   3  15
   87      3    5   4   3  14
   88      3    5   6   1  11
   89      3    5   6   7  19
   90      3    5   6   7   8
   91      3    5   6   1  12
   92      3    5   4   9   8
   93      3    5   4   9  10
   94      3    6   5   4  16
   95      3    6   5   4   9
   96      3    6   7   8   9
   97      3    6   7   8  20
   98      3    6   1   2  13
   99      3    7   8   9  10
  100      3    7   6   1  11
  101      3    7   6   1  12
  102      3    7   6   5  17
  103      3    8   7   6  18
  104      3    8   9   4  16
  105      3    9   4   5  17
  106      3    9   8   7  19
  107      3    9   4   3  15
  108      3    9   4   3  14
  109      3   10   9   8  20
  110      3   10   9   4  16
  111      3   11   1   2  13
  112      3   11   1   6  18
  113      3   12   1   6  18
  114      3   12   1   2  13
  115      3   13   2   3  15
  116      3   13   2   3  14
  117      3   14   3   4  16
  118      3   15   3   4  16
  119      3   16   4   5  17
  120      3   17   5   6  18
  121      3   18   6   7  19
  122      3   19   7   8  20

          INDEP./SYM. INTERNAL COORDINATES
          --------------------------------
 CRD  1=   1.0000 (  1)
 CRD  2=   1.0000 (  2)
 CRD  3=   0.1194 (  5) -0.1185 (  8) -0.2946 ( 10)  0.2903 ( 15)  0.2411 ( 17)
          -0.1579 ( 20)  0.1064 ( 22)  0.1102 ( 24) -0.1302 ( 25)  0.1374 ( 30)
          -0.1117 ( 31)  0.1367 ( 34) -0.1193 ( 35) -0.1587 ( 39) -0.1257 ( 42)
          -0.1526 ( 43)  0.1568 ( 45)  0.1425 ( 49)  0.1075 ( 50)  0.1796 ( 52)
           0.1496 ( 54)  0.1418 ( 55) -0.1416 ( 57) -0.1836 ( 58) -0.1096 ( 61)
          -0.1084 ( 62)  0.1896 ( 68)  0.1699 ( 71) -0.1116 ( 76) -0.1083 ( 77)
          -0.1059 ( 79)  0.1317 (100)  0.1351 (101)  0.1160 (107)  0.1352 (108)
 CRD  4=  -0.2072 (  3)  0.1173 (  6) -0.1542 (  7)  0.1607 ( 10)  0.1045 ( 15)
          -0.1817 ( 17) -0.2417 ( 20)  0.1459 ( 22) -0.3450 ( 26) -0.1072 ( 29)
           0.2594 ( 30)  0.1982 ( 31) -0.1003 ( 32)  0.1987 ( 33)  0.1205 ( 37)
          -0.2217 ( 38)  0.1527 ( 39) -0.1362 ( 41) -0.1143 ( 48)  0.1446 ( 51)
          -0.2083 ( 55) -0.1595 ( 56) -0.1050 ( 98) -0.1116 (101)
 CRD  5=   0.1886 (  3) -0.1961 (  7) -0.1133 (  9) -0.1030 ( 10) -0.1379 ( 11)
           0.1205 ( 13) -0.1301 ( 17)  0.1146 ( 25) -0.1131 ( 28)  0.1200 ( 32)
          -0.1121 ( 34) -0.1596 ( 42)  0.1090 ( 47)  0.1372 ( 48)  0.1767 ( 49)
           0.1330 ( 65) -0.1811 ( 66) -0.1449 ( 67) -0.1570 ( 74) -0.1928 ( 75)
           0.1711 ( 78)  0.1311 ( 82)  0.1452 ( 83)  0.1082 ( 85) -0.1767 ( 89)
          -0.2129 ( 90) -0.2080 ( 92) -0.1722 ( 93)  0.1068 ( 97)  0.1123 ( 99)
           0.1734 (111)  0.1634 (116) -0.1026 (119) -0.1088 (120)
 CRD  6=  -0.3163 (  3) -0.1472 (  5) -0.3192 (  7) -0.1498 (  8) -0.2849 ( 10)
          -0.1039 ( 12) -0.1508 ( 13) -0.2567 ( 15) -0.1064 ( 17) -0.1977 ( 39)
           0.1599 ( 41) -0.1534 ( 42)  0.1487 ( 48) -0.1941 ( 49) -0.1406 ( 50)
           0.1767 ( 55)  0.1100 ( 56) -0.1798 ( 64)  0.1735 ( 79) -0.1769 ( 81)
           0.1790 ( 98)
 CRD  7=   0.1057 (  3)  0.1260 ( 11) -0.1787 ( 17) -0.2014 ( 19) -0.4368 ( 20)
           0.1439 ( 28)  0.1117 ( 32)  0.3796 ( 39) -0.1263 ( 42)  0.1049 ( 48)
          -0.1171 ( 49)  0.1555 ( 50)  0.1811 ( 53) -0.3582 ( 55) -0.1189 ( 56)
          -0.2668 ( 58) -0.1082 ( 64) -0.1009 ( 81)  0.1022 ( 98)
 CRD  8=   0.1299 ( 10)  0.2407 ( 11) -0.3183 ( 13) -0.2363 ( 15)  0.1336 ( 17)
          -0.1335 ( 18)  0.1908 ( 21)  0.1586 ( 22) -0.1437 ( 33)  0.3176 ( 37)
           0.1120 ( 39) -0.1789 ( 40) -0.1143 ( 41) -0.3464 ( 47) -0.2757 ( 50)
           0.1414 ( 51)  0.1342 ( 56)  0.1145 ( 68) -0.1163 ( 89) -0.1033 ( 90)
           0.1351 (102)
 CRD  9=   0.1320 (  3)  0.1961 (  7)  0.1163 (  9) -0.3018 ( 10)  0.1236 ( 13)
          -0.3002 ( 15) -0.2477 ( 17) -0.2147 ( 19)  0.1223 ( 24) -0.1061 ( 29)
           0.1385 ( 34)  0.1265 ( 41)  0.1136 ( 48) -0.1536 ( 52)  0.1217 ( 53)
           0.1312 ( 55)  0.1430 ( 61)  0.1224 ( 62) -0.1186 ( 65) -0.1806 ( 76)
          -0.1506 ( 77) -0.1045 ( 80)  0.1211 ( 85)  0.1278 ( 93) -0.1482 ( 95)
           0.1418 (102) -0.1782 (105) -0.1348 (114)  0.1128 (115)
 CRD 10=  -0.1009 (  3) -0.1089 (  7)  0.3257 ( 17)  0.1243 ( 18) -0.1827 ( 20)
          -0.1309 ( 28) -0.2448 ( 50) -0.1246 ( 51)  0.3953 ( 52) -0.1651 ( 55)
           0.3693 ( 56) -0.4009 ( 58)  0.1097 ( 62)
 CRD 11=   0.1670 (  6)  0.4680 (  7)  0.1901 ( 11)  0.1026 ( 14)  0.1045 ( 17)
           0.1201 ( 19) -0.2361 ( 22) -0.1318 ( 26)  0.2175 ( 32)  0.3647 ( 33)
           0.1192 ( 37) -0.1611 ( 39) -0.1822 ( 42) -0.1659 ( 50)  0.1178 ( 52)
          -0.1243 ( 53)  0.1344 ( 65) -0.1000 ( 75)  0.1362 ( 87)  0.1772 (108)
 CRD 12=   0.2451 (  3)  0.1197 (  4) -0.1091 (  7)  0.1798 ( 10)  0.2079 ( 11)
           0.1161 ( 12)  0.2809 ( 13)  0.2970 ( 14)  0.1023 ( 15)  0.1598 ( 17)
           0.1922 ( 19)  0.2166 ( 22)  0.1680 ( 28) -0.1528 ( 29) -0.1227 ( 31)
          -0.2379 ( 33) -0.1652 ( 38)  0.2023 ( 41)  0.1090 ( 47)  0.2152 ( 48)
          -0.1003 ( 49) -0.1551 ( 50) -0.1299 ( 53) -0.1339 ( 64)  0.1203 ( 79)
           0.1370 ( 98)
 CRD 13=   0.3968 (  3)  0.2095 (  6) -0.2384 ( 11) -0.1069 ( 12) -0.1485 ( 14)
          -0.1693 ( 15) -0.1049 ( 16) -0.1089 ( 20) -0.1225 ( 21)  0.2915 ( 22)
          -0.1562 ( 26)  0.1477 ( 28) -0.1491 ( 33) -0.1507 ( 37) -0.1649 ( 41)
           0.1198 ( 47) -0.1638 ( 48) -0.1504 ( 49) -0.1778 ( 50)  0.1112 ( 52)
           0.1232 ( 56) -0.1909 ( 78) -0.1284 ( 88) -0.1341 (100) -0.1163 (111)
           0.1271 (114)
 CRD 14=  -0.2931 ( 11) -0.1258 ( 12) -0.2993 ( 13)  0.1032 ( 15) -0.1687 ( 16)
          -0.1246 ( 17) -0.2120 ( 18)  0.2071 ( 19) -0.1430 ( 20) -0.2148 ( 21)
           0.1322 ( 24) -0.1283 ( 30) -0.1212 ( 31)  0.1254 ( 35)  0.1515 ( 40)
           0.1080 ( 41) -0.1481 ( 44) -0.1657 ( 46)  0.1296 ( 48)  0.1021 ( 49)
           0.1544 ( 51)  0.1377 ( 52) -0.2915 ( 53) -0.1204 ( 55) -0.1102 ( 56)
           0.1541 ( 58)
 CRD 15=   0.1422 (  3)  0.1163 (  4) -0.1148 (  7)  0.1399 (  8) -0.1302 ( 10)
           0.1786 ( 11) -0.2077 ( 12) -0.2059 ( 13)  0.1457 ( 15)  0.1606 ( 16)
          -0.1069 ( 20)  0.1774 ( 27) -0.1986 ( 29) -0.1065 ( 39)  0.1451 ( 41)
          -0.1717 ( 48)  0.1099 ( 50)  0.1480 ( 54)  0.1460 ( 55) -0.1725 ( 56)
          -0.1613 ( 57)  0.1877 ( 63)  0.1063 ( 64) -0.1309 ( 69) -0.1032 ( 70)
          -0.1552 ( 72) -0.1407 ( 73)  0.1002 ( 76)  0.2115 ( 80)  0.1051 ( 81)
           0.1002 ( 94)  0.1213 (101)  0.1245 (107)  0.2054 (114)  0.1866 (115)
           0.1105 (119)
 CRD 16=  -0.1202 (  9) -0.1011 ( 10)  0.3183 ( 12) -0.2772 ( 16)  0.1258 ( 18)
          -0.2342 ( 21)  0.1537 ( 27) -0.1575 ( 29)  0.2275 ( 37)  0.1707 ( 40)
          -0.1280 ( 42)  0.1806 ( 44) -0.1569 ( 45) -0.1011 ( 46) -0.2628 ( 47)
          -0.1156 ( 48)  0.1406 ( 49) -0.1039 ( 51)  0.1246 ( 66)  0.1054 ( 67)
          -0.1404 ( 68) -0.1033 ( 71) -0.1024 ( 72)  0.1452 ( 75)  0.1647 ( 86)
           0.1441 ( 87)  0.1421 ( 91)  0.1419 (104)  0.1144 (105)
 CRD 17=   0.1042 (  3)  0.1791 (  4) -0.1321 (  5)  0.3414 (  6) -0.1170 (  8)
           0.1094 (  9) -0.1345 ( 13) -0.1675 ( 16)  0.3052 ( 18) -0.1642 ( 19)
           0.2212 ( 21) -0.1513 ( 26) -0.1143 ( 40) -0.1005 ( 42)  0.1062 ( 43)
          -0.1284 ( 46)  0.1184 ( 48)  0.1036 ( 50) -0.1462 ( 51)  0.1217 ( 53)
           0.1089 ( 63)  0.1123 ( 68) -0.1757 ( 69) -0.1745 ( 71)  0.1125 ( 72)
          -0.1292 ( 80) -0.1095 ( 83) -0.1159 ( 99)  0.1042 (106)
 CRD 18=   0.1409 (  8)  0.1427 ( 12)  0.1034 ( 15) -0.1200 ( 16)  0.1390 ( 18)
          -0.1421 ( 25)  0.1407 ( 28) -0.1176 ( 32) -0.1559 ( 41)  0.2210 ( 42)
           0.1480 ( 48) -0.2087 ( 49) -0.1163 ( 63) -0.2041 ( 65) -0.2182 ( 78)
          -0.1310 ( 80)  0.1124 ( 83)  0.1451 ( 84) -0.1228 ( 90) -0.1419 ( 92)
          -0.1182 ( 93) -0.1480 (103) -0.1588 (104) -0.1351 (110) -0.2078 (111)
          -0.1206 (114) -0.1298 (115) -0.2176 (116) -0.1091 (117)  0.1149 (119)
           0.1490 (120) -0.1227 (121)
 CRD 19=   0.1246 (  5) -0.1504 (  6) -0.3772 ( 12)  0.3429 ( 14) -0.4583 ( 16)
           0.1719 ( 18) -0.1429 ( 19)  0.1535 ( 21) -0.1546 ( 38)  0.1196 ( 66)
           0.1223 ( 70)  0.1278 ( 91) -0.1280 ( 96) -0.1159 ( 97)  0.1006 (102)
          -0.1020 (106)
 CRD 20=  -0.1494 (  4) -0.1597 (  8)  0.3010 (  9)  0.2801 ( 12) -0.1719 ( 16)
          -0.1321 ( 25)  0.1135 ( 34) -0.1146 ( 36)  0.2335 ( 41) -0.1062 ( 44)
          -0.2001 ( 48)  0.2064 ( 63)  0.1197 ( 72) -0.1194 ( 75)  0.1757 ( 80)
           0.1160 ( 82)  0.1267 ( 83)  0.1228 ( 84) -0.1143 ( 90) -0.1435 ( 92)
          -0.1145 ( 93) -0.1746 (103) -0.2192 (104) -0.1902 (110)  0.1916 (114)
           0.1900 (115) -0.1476 (121)
 CRD 21=   0.3432 (  4) -0.2287 (  5)  0.2926 (  6) -0.1931 (  8)  0.1701 (  9)
           0.1349 ( 16)  0.1431 ( 27) -0.1050 ( 28)  0.1384 ( 29) -0.1138 ( 34)
           0.1335 ( 62) -0.1073 ( 69) -0.1255 ( 77)  0.1276 ( 83)  0.1833 ( 84)
           0.1190 ( 85)  0.1075 ( 91) -0.2176 ( 94) -0.1544 ( 95) -0.1753 ( 96)
          -0.1426 ( 97)  0.1348 ( 99)  0.1055 (100)  0.1301 (101) -0.1602 (106)
           0.1039 (109) -0.1506 (119)  0.1140 (120) -0.1275 (122)
 CRD 22=   0.2138 (  4)  0.2937 (  6)  0.1579 (  9)  0.2688 ( 14) -0.1182 ( 16)
          -0.1003 ( 18) -0.1433 ( 28) -0.1489 ( 32)  0.2146 ( 42)  0.1994 ( 49)
          -0.1228 ( 62) -0.1581 ( 63) -0.1059 ( 64) -0.2637 ( 65)  0.1227 ( 77)
           0.2314 ( 78)  0.1834 ( 80) -0.1031 ( 85)  0.1416 ( 94)  0.1259 ( 95)
           0.1516 (111)  0.1176 (112)  0.1064 (113)  0.1036 (114) -0.1878 (116)
           0.1022 (119)
 CRD 23=  -0.4968 (  4) -0.7032 (  5)  0.1504 ( 14)  0.1524 ( 27) -0.2153 ( 59)
          -0.1082 ( 80)  0.1809 ( 91)  0.1793 (101)  0.1887 (113)
 CRD 24=   0.2849 (  4) -0.1442 (  5)  0.2250 (  8) -0.4012 (  9)  0.1235 ( 10)
          -0.1338 ( 11) -0.1521 ( 18)  0.2350 ( 21) -0.1035 ( 28) -0.1106 ( 29)
           0.1667 ( 32) -0.1194 ( 65)  0.1763 ( 86)  0.2278 ( 87)  0.1481 ( 88)
           0.1179 ( 91)  0.1420 (100)  0.1118 (101)  0.1725 (107)  0.2240 (108)
           0.1559 (112)  0.1257 (113) -0.1126 (116)  0.2355 (117)  0.1839 (118)
 CRD 25=   0.6980 (  8)  0.5364 (  9)  0.2318 ( 60) -0.1307 ( 63)  0.1495 ( 86)
           0.1449 (107) -0.1203 (115)  0.1492 (118)
 CRD 26=  -0.3017 (  4)  0.2315 (  6) -0.3358 ( 14)  0.1581 ( 18)  0.1179 ( 21)
           0.1229 ( 42)  0.1364 ( 49) -0.1135 ( 59) -0.1505 ( 63) -0.1327 ( 64)
          -0.2538 ( 65)  0.2970 ( 78)  0.1317 ( 79)  0.1664 ( 80)  0.1033 ( 87)
          -0.1759 ( 88) -0.1838 (100)  0.1086 (108)  0.2105 (111) -0.1990 (112)
          -0.1664 (116)  0.1092 (117)
 CRD 27=  -0.2091 ( 12) -0.1823 ( 25) -0.1104 ( 34) -0.1188 ( 66) -0.2546 ( 82)
          -0.1477 ( 83)  0.2252 ( 84)  0.1310 ( 85) -0.1333 ( 89) -0.1777 ( 90)
           0.1071 ( 92) -0.1774 ( 94) -0.1092 ( 95)  0.1895 ( 96)  0.3028 ( 97)
          -0.1178 ( 99) -0.2848 (103)  0.1752 (104)  0.1435 (106) -0.2247 (109)
           0.1429 (110) -0.1369 (119)  0.1908 (120) -0.2404 (121)  0.2568 (122)
 CRD 28=   0.1784 ( 10)  0.3261 ( 12) -0.1888 ( 16) -0.1020 ( 17) -0.4021 ( 18)
          -0.3021 ( 19)  0.2597 ( 21) -0.1339 ( 34) -0.2649 ( 39)  0.1029 ( 47)
           0.2871 ( 52)  0.2566 ( 55) -0.2776 ( 58) -0.1094 ( 94)  0.1025 (104)
          -0.1009 (119)
 CRD 29=   0.1677 ( 10) -0.1214 ( 11)  0.1525 ( 14)  0.1996 ( 15)  0.3898 ( 16)
          -0.5853 ( 19) -0.1046 ( 20) -0.2606 ( 21) -0.2660 ( 50) -0.1082 ( 52)
           0.2505 ( 56)  0.1376 ( 58)
 CRD 30=   0.2485 ( 12)  0.1372 ( 14) -0.1181 ( 41) -0.1143 ( 48)  0.1248 ( 61)
          -0.1908 ( 63) -0.2339 ( 67)  0.2242 ( 74) -0.1213 ( 76)  0.1954 ( 80)
           0.2177 ( 82) -0.2400 ( 89)  0.2567 ( 93) -0.2301 ( 97) -0.2468 ( 99)
           0.1679 (102) -0.1690 (105)  0.2366 (106)  0.1576 (110)  0.2044 (114)
          -0.1926 (115) -0.1336 (121)
 CRD 31=   0.1042 (  4) -0.1550 (  5)  0.1172 (  7)  0.1005 (  8)  0.1006 ( 10)
           0.2291 ( 11)  0.2755 ( 12) -0.2238 ( 13) -0.2852 ( 16)  0.2419 ( 17)
           0.2539 ( 18) -0.2620 ( 20) -0.2756 ( 21)  0.1324 ( 22) -0.1232 ( 33)
          -0.2070 ( 37)  0.2199 ( 47) -0.1653 ( 52)  0.1676 ( 58) -0.1129 (102)
           0.1118 (108)
 CRD 32=  -0.2430 (  4)  0.1874 (  5)  0.4822 (  6)  0.1883 (  8) -0.2344 (  9)
          -0.1492 ( 10)  0.3671 ( 14) -0.1551 ( 15)  0.1122 ( 17) -0.1841 ( 18)
           0.1632 ( 19) -0.2208 ( 21) -0.1024 ( 37)  0.1061 ( 54) -0.1008 ( 94)
          -0.1351 (113)  0.1268 (118)
 CRD 33=   0.3064 (  3)  0.1937 (  5) -0.3142 (  7) -0.1222 (  8)  0.1374 ( 10)
          -0.1030 ( 15)  0.1447 ( 17)  0.1626 ( 18) -0.1953 ( 20) -0.1155 ( 21)
          -0.3379 ( 22)  0.1040 ( 28) -0.1187 ( 32)  0.3544 ( 33)  0.1036 ( 55)
          -0.1674 ( 59)  0.1361 ( 60)  0.1002 ( 86)  0.1290 ( 91)  0.1584 (101)
           0.1304 (107)  0.1858 (113) -0.1260 (115)  0.1382 (118)
 CRD 34=   0.1430 (  3) -0.1271 (  7) -0.2262 ( 10)  0.1378 ( 11) -0.1133 ( 13)
           0.2541 ( 15) -0.1065 ( 16) -0.2290 ( 18) -0.1118 ( 19)  0.1377 ( 20)
           0.1922 ( 21)  0.1041 ( 33) -0.2096 ( 37)  0.1974 ( 39)  0.1224 ( 44)
          -0.1299 ( 46)  0.2069 ( 47) -0.2144 ( 50) -0.1819 ( 52)  0.1301 ( 54)
          -0.2774 ( 55)  0.2804 ( 56) -0.1386 ( 57)  0.2043 ( 58) -0.1002 ( 69)
          -0.1124 (112)
 CRD 35=   0.1914 ( 10)  0.1695 ( 11) -0.2853 ( 12)  0.2047 ( 13) -0.2683 ( 14)
           0.1389 ( 15) -0.2766 ( 16)  0.2318 ( 17) -0.3432 ( 18) -0.2551 ( 19)
           0.2359 ( 20) -0.4120 ( 21)  0.1317 ( 82) -0.1266 ( 97)
 CRD 36=   0.1218 (  3)  0.1430 (  4) -0.4488 (  6)  0.1007 (  9)  0.3307 ( 14)
          -0.1268 ( 15) -0.1481 ( 18)  0.1082 ( 19) -0.1830 ( 21) -0.1404 ( 26)
          -0.1025 ( 40)  0.1066 ( 53) -0.1571 ( 69)  0.1621 ( 72)  0.1266 ( 87)
          -0.1428 ( 88) -0.1362 (100)  0.1181 (108)  0.1114 (111) -0.2071 (112)
          -0.1245 (113)  0.1993 (117)  0.1212 (118)
 CRD 37=   0.1015 (  5)  0.1640 (  8) -0.1804 (  9) -0.1499 ( 14) -0.1119 ( 18)
           0.1343 ( 20)  0.1100 ( 25)  0.1144 ( 29)  0.1585 ( 34) -0.1475 ( 42)
          -0.1058 ( 44)  0.1352 ( 65) -0.2248 ( 81) -0.1961 ( 82) -0.1378 ( 86)
           0.2037 ( 97)  0.2366 ( 98) -0.1139 (109) -0.1788 (110)  0.1413 (111)
           0.2824 (114) -0.2439 (115) -0.1031 (118)  0.1591 (121)
 CRD 38=   0.1289 (  3) -0.1567 (  7) -0.1124 ( 17) -0.1194 ( 21) -0.1714 ( 25)
          -0.1287 ( 28)  0.1227 ( 32)  0.1378 ( 34) -0.1427 ( 41) -0.1159 ( 42)
          -0.1081 ( 44)  0.1485 ( 48)  0.1411 ( 49) -0.1189 ( 63)  0.1339 ( 65)
           0.1042 ( 74)  0.1563 ( 78) -0.1285 ( 80)  0.2293 ( 84)  0.1433 ( 89)
           0.1719 ( 93)  0.1998 ( 94) -0.1347 ( 99) -0.2086 (103) -0.1901 (104)
          -0.1507 (106) -0.1462 (109)  0.1097 (111) -0.1750 (114)  0.1849 (116)
           0.2210 (119)  0.2154 (120) -0.1173 (121) -0.1378 (122)
 CRD 39=  -0.1116 (  7) -0.2547 ( 11)  0.2721 ( 13) -0.1710 ( 15)  0.4409 ( 17)
          -0.1923 ( 18) -0.3710 ( 20)  0.1740 ( 21)  0.1225 ( 37)  0.1000 ( 40)
          -0.1302 ( 47)  0.1086 ( 50) -0.2290 ( 52)  0.2391 ( 58) -0.1067 ( 69)
          -0.1068 ( 72) -0.1151 (113) -0.1243 (118)  0.1315 (119)  0.1003 (120)
 CRD 40=   0.1164 ( 10)  0.1621 ( 13) -0.2167 ( 14)  0.1661 ( 15) -0.2621 ( 17)
          -0.1207 ( 18)  0.3996 ( 19) -0.2809 ( 20) -0.1274 ( 38) -0.1305 ( 40)
          -0.1471 ( 50) -0.1608 ( 51) -0.2071 ( 52)  0.3118 ( 53)  0.2123 ( 55)
           0.3078 ( 56) -0.1042 ( 58)
 CRD 41=  -0.1754 (  4) -0.1336 (  8)  0.2268 (  9)  0.3107 ( 10) -0.1640 ( 12)
          -0.1839 ( 15) -0.1324 ( 17)  0.1188 ( 18) -0.1355 ( 21)  0.1745 ( 32)
          -0.1626 ( 37)  0.1671 ( 44) -0.1641 ( 46)  0.1528 ( 47)  0.1032 ( 54)
           0.1072 ( 55) -0.1226 ( 57) -0.1261 ( 58) -0.1348 ( 69) -0.1872 ( 72)
          -0.1406 ( 78)  0.2118 ( 87)  0.1558 ( 88) -0.1335 ( 93)  0.1009 ( 94)
           0.1206 ( 99)  0.1170 (100)  0.1208 (108)  0.1010 (109) -0.1075 (111)
          -0.1029 (118)  0.1085 (122)
 CRD 42=  -0.1352 (  5)  0.1155 (  6) -0.1324 (  8)  0.1144 ( 10)  0.2031 ( 15)
          -0.1030 ( 16)  0.1336 ( 19) -0.1838 ( 20)  0.1270 ( 23)  0.1349 ( 26)
          -0.1072 ( 27)  0.1154 ( 36)  0.1217 ( 38) -0.1152 ( 39) -0.1088 ( 45)
           0.1050 ( 53)  0.1186 ( 56)  0.1276 ( 60)  0.1646 ( 61) -0.1334 ( 63)
          -0.1283 ( 76)  0.1057 ( 80) -0.1594 ( 82)  0.1268 ( 86)  0.1478 ( 89)
          -0.1099 ( 91)  0.1827 ( 97)  0.2226 (102)  0.1028 (103) -0.1471 (104)
          -0.1946 (105) -0.1329 (106) -0.1452 (109) -0.1577 (110)  0.1271 (116)
           0.1218 (118) -0.1132 (119)  0.1501 (120)  0.1901 (121)
 CRD 43=   0.2868 (  3) -0.1797 (  5)  0.1299 (  7) -0.1749 (  9)  0.1583 ( 11)
          -0.1221 ( 12)  0.1320 ( 13) -0.1356 ( 15) -0.1109 ( 16)  0.1583 ( 18)
           0.1283 ( 21) -0.1397 ( 27) -0.1018 ( 28) -0.1175 ( 32)  0.1095 ( 40)
          -0.1010 ( 50)  0.1557 ( 51)  0.1698 ( 54)  0.2251 ( 59)  0.1795 ( 60)
           0.1038 ( 65) -0.1340 ( 81) -0.1387 ( 91)  0.1814 (100) -0.1293 (102)
          -0.1941 (108) -0.1390 (110) -0.2071 (113)  0.1493 (114) -0.1418 (115)
           0.1170 (118)
 CRD 44=  -0.1938 (  3)  0.1525 (  5)  0.2785 (  7) -0.2006 (  8)  0.1562 ( 11)
          -0.1461 ( 12)  0.1250 ( 17) -0.1442 ( 20)  0.1436 ( 22)  0.1365 ( 27)
          -0.1499 ( 29) -0.1459 ( 33) -0.1055 ( 39)  0.1018 ( 40)  0.1119 ( 57)
           0.1556 ( 60) -0.1448 ( 68) -0.1040 ( 71)  0.1437 ( 74)  0.1004 ( 85)
           0.1784 ( 86) -0.1557 ( 90)  0.1138 ( 91) -0.1407 ( 92)  0.1051 ( 98)
          -0.1495 ( 99) -0.1044 (104)  0.1394 (105) -0.1420 (106) -0.1307 (108)
          -0.1505 (109)  0.1244 (110) -0.1285 (115)  0.1451 (118)  0.1182 (121)
          -0.1414 (122)
 CRD 45=  -0.2542 (  3)  0.1795 (  4)  0.1785 ( 11) -0.1362 ( 12) -0.1017 ( 13)
          -0.1254 ( 20)  0.1121 ( 21)  0.1238 ( 28)  0.1333 ( 34) -0.1129 ( 39)
          -0.1080 ( 42) -0.1371 ( 45) -0.2429 ( 59)  0.1044 ( 65) -0.1342 ( 67)
          -0.1135 ( 68)  0.1957 ( 75)  0.1173 ( 78) -0.1258 ( 83) -0.1818 ( 88)
           0.1189 ( 92) -0.1242 ( 93) -0.1008 ( 97)  0.1123 ( 99) -0.1434 (100)
           0.1065 (101) -0.1206 (102)  0.1682 (106) -0.1418 (107)  0.2062 (109)
          -0.2565 (110)  0.1033 (111) -0.1216 (112)  0.1283 (113)  0.1206 (116)
          -0.1835 (121)
 CRD 46=  -0.1317 (  6)  0.2255 (  7) -0.1953 (  9) -0.1158 ( 13) -0.1033 ( 14)
           0.1960 ( 16)  0.1180 ( 17)  0.1246 ( 22) -0.1326 ( 26) -0.1159 ( 28)
          -0.1750 ( 32)  0.1022 ( 41)  0.1823 ( 43)  0.1432 ( 47)  0.1402 ( 50)
          -0.1062 ( 51)  0.1267 ( 60) -0.1677 ( 62) -0.1129 ( 64)  0.1090 ( 66)
           0.1228 ( 68) -0.1578 ( 71) -0.1265 ( 74)  0.1342 ( 77)  0.1012 ( 78)
          -0.1363 ( 87)  0.1349 ( 88)  0.1373 ( 91)  0.1196 ( 94)  0.1025 ( 99)
           0.1460 (102) -0.1786 (105) -0.1074 (108) -0.1028 (110)  0.1093 (116)
          -0.1688 (117)  0.1881 (120) -0.1245 (121)  0.1169 (122)
 CRD 47=   0.1506 (  3) -0.1050 (  4) -0.1266 (  8) -0.3160 ( 13)  0.2187 ( 15)
          -0.1540 ( 18) -0.1591 ( 23)  0.1607 ( 24) -0.1209 ( 31)  0.1930 ( 46)
          -0.1489 ( 51) -0.2276 ( 54)  0.1683 ( 59)  0.1342 ( 66)  0.1635 ( 69)
          -0.1393 ( 71) -0.1036 ( 78) -0.1331 ( 91) -0.2038 (101)  0.1397 (109)
           0.2919 (112) -0.1238 (115) -0.1103 (116) -0.1575 (121)
 CRD 48=   0.2018 (  4) -0.1494 (  5) -0.1480 (  9)  0.2692 ( 10) -0.2424 ( 11)
           0.1051 ( 14) -0.1174 ( 22) -0.1219 ( 27)  0.1363 ( 28)  0.1349 ( 35)
          -0.1647 ( 36) -0.1066 ( 40)  0.1845 ( 44) -0.1873 ( 57)  0.1272 ( 60)
           0.1329 ( 65)  0.1147 ( 69)  0.1111 ( 70) -0.1921 ( 72) -0.1458 ( 77)
          -0.1223 ( 79)  0.1275 ( 86) -0.1263 (100)  0.1178 (107)  0.1343 (111)
          -0.3175 (117) -0.1604 (118)  0.1600 (119)
 CRD 49=   0.1555 (  3) -0.1973 (  7)  0.2466 (  8)  0.1112 ( 10)  0.1336 ( 11)
          -0.2297 ( 12) -0.1625 ( 13) -0.1011 ( 20)  0.1504 ( 29)  0.1050 ( 30)
           0.1182 ( 33) -0.1157 ( 37) -0.1114 ( 39)  0.1036 ( 40)  0.1033 ( 44)
          -0.1438 ( 45) -0.1866 ( 60)  0.1407 ( 63) -0.1105 ( 64)  0.1014 ( 72)
           0.2172 ( 73)  0.1982 ( 74) -0.1599 ( 76) -0.1277 ( 81)  0.1628 ( 87)
          -0.1541 ( 92)  0.1075 ( 95) -0.2788 (107)  0.1235 (115) -0.1710 (118)
 CRD 50=  -0.1412 (  4)  0.1849 (  5)  0.1098 (  7)  0.1260 ( 10) -0.1851 ( 11)
           0.1321 ( 14)  0.1805 ( 15) -0.2195 ( 16)  0.1222 ( 22) -0.1550 ( 26)
           0.1244 ( 27) -0.1389 ( 28)  0.2018 ( 38) -0.1541 ( 43)  0.1303 ( 44)
           0.1829 ( 46) -0.1514 ( 47)  0.1104 ( 48)  0.2008 ( 61)  0.1039 ( 62)
          -0.1001 ( 66) -0.2725 ( 70)  0.1196 ( 73)  0.1263 ( 79) -0.1036 ( 80)
          -0.1150 ( 81) -0.1060 ( 88)  0.1243 ( 89)  0.1176 ( 90)  0.2145 ( 98)
           0.1308 (100)  0.1513 (101)  0.1056 (113) -0.1090 (117)  0.1113 (120)
 CRD 51=   0.1680 ( 23) -0.1776 ( 24)  0.2011 ( 31)  0.1069 ( 35)  0.1175 ( 40)
           0.1053 ( 42)  0.1121 ( 50) -0.2435 ( 66)  0.1477 ( 70)  0.1041 ( 71)
          -0.1773 ( 74) -0.2666 ( 83) -0.1557 ( 90)  0.1709 ( 92)  0.2510 ( 96)
           0.1327 (102)  0.2463 (109) -0.1158 (110)  0.1244 (111)  0.1599 (121)
          -0.3409 (122)
 CRD 52=  -0.2182 ( 15) -0.1112 ( 22) -0.1619 ( 23) -0.1302 ( 31) -0.1479 ( 35)
          -0.1231 ( 36) -0.1072 ( 40)  0.1549 ( 45)  0.1091 ( 47) -0.1103 ( 50)
           0.1917 ( 61)  0.1761 ( 67) -0.1401 ( 73)  0.1292 ( 75) -0.2349 ( 76)
          -0.1417 ( 83) -0.2118 ( 85)  0.1503 ( 89) -0.1319 ( 93)  0.2257 ( 95)
           0.2121 ( 96) -0.1693 (103)  0.1006 (104)  0.1441 (109) -0.2657 (119)
           0.2285 (120) -0.2225 (122)
 CRD 53=  -0.1018 ( 27) -0.1172 ( 29)  0.1063 ( 31) -0.1458 ( 62)  0.2456 ( 63)
           0.2243 ( 64)  0.1020 ( 65)  0.1478 ( 77) -0.2222 ( 79) -0.2872 ( 80)
          -0.1579 ( 81)  0.1491 ( 83)  0.1525 ( 90) -0.1050 ( 92) -0.1743 ( 96)
           0.1664 ( 98) -0.1069 (109)  0.3493 (111)  0.1014 (114) -0.1366 (115)
          -0.2801 (116) -0.1106 (119)  0.1441 (120) -0.1177 (121)  0.1613 (122)
 CRD 54=  -0.1638 ( 10)  0.1026 ( 22) -0.3060 ( 23)  0.1351 ( 25)  0.1016 ( 29)
           0.1735 ( 31)  0.2206 ( 35) -0.3715 ( 36) -0.1374 ( 39)  0.1003 ( 42)
           0.1835 ( 43) -0.1358 ( 48)  0.1109 ( 57)  0.2290 ( 61)  0.1224 ( 62)
          -0.1012 ( 67)  0.1117 ( 70) -0.1129 ( 75) -0.1820 ( 76) -0.1017 ( 77)
          -0.1912 ( 85)  0.1455 ( 90)  0.1948 ( 95) -0.1045 ( 96)  0.1145 (105)
          -0.1039 (109)  0.1247 (120) -0.1055 (121)  0.1197 (122)

 THE DETERMINANT OF THE G MATRIX IS 10**(   -20)


                     --------------------
                     INTERNAL COORDINATES
                     --------------------

                 - - ATOMS - -         COORDINATE      COORDINATE
 NO.   TYPE    I  J  K  L  M  N        (BOHR,RAD)       (ANG,DEG)
 ----------------------------------------------------------------
   1 STRETCH   1  6                     3.7843740       2.0026046
   2 STRETCH   3  4                     3.7763036       1.9983340
   3 STRETCH   1  2                     2.5653442       1.3575218
   4 STRETCH   1 12                     2.0705338       1.0956794
   5 STRETCH   1 11                     2.0650055       1.0927540
   6 STRETCH   2 13                     2.0542471       1.0870608
   7 STRETCH   2  3                     2.8444335       1.5052095
   8 STRETCH   3 14                     2.0664609       1.0935241
   9 STRETCH   3 15                     2.0642696       1.0923645
  10 STRETCH   4  9                     2.8710584       1.5192988
  11 STRETCH   4  5                     2.8409900       1.5033873
  12 STRETCH   4 16                     2.0638917       1.0921645
  13 STRETCH   5  6                     2.5720449       1.3610676
  14 STRETCH   5 17                     2.0515561       1.0856368
  15 STRETCH   6  7                     2.8013499       1.4824106
  16 STRETCH   6 18                     2.0710231       1.0959383
  17 STRETCH   7  8                     2.5339234       1.3408946
  18 STRETCH   7 19                     2.0537701       1.0868084
  19 STRETCH   8 20                     2.0435339       1.0813916
  20 STRETCH   8  9                     2.8077576       1.4858015
  21 STRETCH   9 10                     2.3233457       1.2294617
  22 BEND      1  2 13                  2.0904582     119.7744334
  23 BEND      1  6  7                  1.8395629     105.3991918
  24 BEND      1  6  5                  1.7956185     102.8813620
  25 BEND      1  6 18                  1.6769616      96.0828209
  26 BEND      1  2  3                  2.0944707     120.0043326
  27 BEND      2  1 12                  2.0185057     115.6518590
  28 BEND      2  1 11                  2.0610677     118.0904810
  29 BEND      2  3 15                  2.0134512     115.3622571
  30 BEND      2  3  4                  1.8452187     105.7232452
  31 BEND      2  1  6                  1.9109414     109.4888763
  32 BEND      2  3 14                  1.9614903     112.3851146
  33 BEND      3  2 13                  2.0490913     117.4042817
  34 BEND      3  4 16                  1.8532477     106.1832728
  35 BEND      3  4  5                  1.8002450     103.1464410
  36 BEND      3  4  9                  1.8228575     104.4420437
  37 BEND      4  5 17                  2.0682896     118.5042660
  38 BEND      4  5  6                  2.0244979     115.9951866
  39 BEND      4  9 10                  2.1394408     122.5809295
  40 BEND      4  9  8                  2.0575017     117.8861646
  41 BEND      4  3 15                  1.8559445     106.3377893
  42 BEND      4  3 14                  1.7978012     103.0064194
  43 BEND      5  6  7                  2.0054432     114.9034328
  44 BEND      5  4 16                  2.0098443     115.1555960
  45 BEND      5  4  9                  1.9858973     113.7835346
  46 BEND      5  6 18                  2.0636939     118.2409495
  47 BEND      6  5 17                  2.1033141     120.5110223
  48 BEND      6  1 12                  1.5358588      87.9982277
  49 BEND      6  1 11                  1.7952526     102.8603983
  50 BEND      6  7 19                  2.0349394     116.5934414
  51 BEND      6  7  8                  2.1451084     122.9056584
  52 BEND      7  8 20                  2.1558180     123.5192739
  53 BEND      7  8  9                  2.0741420     118.8395825
  54 BEND      7  6 18                  2.0134681     115.3632270
  55 BEND      8  9 10                  2.0857106     119.5024137
  56 BEND      8  7 19                  2.1031313     120.5005500
  57 BEND      9  4 16                  1.9669380     112.6972449
  58 BEND      9  8 20                  2.0532044     117.6399469
  59 BEND     11  1 12                  2.0387209     116.8101028
  60 BEND     14  3 15                  1.9680982     112.7637193
  61 TORSION   1  6  5 17               1.5208515      87.1383749
  62 TORSION   1  6  5  4              -1.1781263     -67.5016621
  63 TORSION   1  2  3 15               1.1447116      65.5871423
  64 TORSION   1  2  3  4              -0.9005422     -51.5972650
  65 TORSION   1  2  3 14              -2.8490714    -163.2397673
  66 TORSION   1  6  7  8               1.4934387      85.5677344
  67 TORSION   1  6  7 19              -1.6518992     -94.6468527
  68 TORSION   2  3  4  9               1.9084082     109.3437343
  69 TORSION   2  1  6 18               2.1362536     122.3983159
  70 TORSION   2  1  6  5               0.0273463       1.5668276
  71 TORSION   2  1  6  7              -2.0798373    -119.1659007
  72 TORSION   2  3  4 16              -2.2923119    -131.3397977
  73 TORSION   2  3  4  5              -0.1719569      -9.8524038
  74 TORSION   3  4  9 10               1.3978263      80.0895484
  75 TORSION   3  4  9  8              -1.7084995     -97.8898125
  76 TORSION   3  4  5 17              -1.4507166     -83.1199390
  77 TORSION   3  4  5  6               1.2575449      72.0520145
  78 TORSION   3  2  1 11               3.0492669     174.7101263
  79 TORSION   3  2  1  6               1.0043925      57.5474531
  80 TORSION   3  2  1 12              -0.6956130     -39.8556891
  81 TORSION   4  3  2 13               1.9087526     109.3634696
  82 TORSION   4  9  8 20              -3.0626139    -175.4748507
  83 TORSION   4  9  8  7               0.0856781       4.9089927
  84 TORSION   4  5  6 18              -2.9977020    -171.7556750
  85 TORSION   4  5  6  7               0.8112816      46.4830113
  86 TORSION   5  4  3 15              -2.3206230    -132.9619034
  87 TORSION   5  4  3 14               1.8893539     108.2520062
  88 TORSION   5  6  1 11              -2.1783921    -124.8126710
  89 TORSION   5  6  7 19               2.6676539     152.8453089
  90 TORSION   5  6  7  8              -0.4701935     -26.9401040
  91 TORSION   5  6  1 12               2.0616887     118.1260603
  92 TORSION   5  4  9  8               0.2414765      13.8355823
  93 TORSION   5  4  9 10              -2.9353830    -168.1850568
  94 TORSION   6  5  4 16              -3.0149029    -172.7412134
  95 TORSION   6  5  4  9              -0.7060924     -40.4561119
  96 TORSION   6  7  8  9               0.0074365       0.4260792
  97 TORSION   6  7  8 20              -3.1270375    -179.1660527
  98 TORSION   6  1  2 13              -1.7970218    -102.9617654
  99 TORSION   7  8  9 10              -3.0217708    -173.1347117
 100 TORSION   7  6  1 11               1.9976096     114.4546008
 101 TORSION   7  6  1 12              -0.0454949      -2.6066679
 102 TORSION   7  6  5 17              -2.7729259    -158.8769517
 103 TORSION   8  7  6 18              -2.9639932    -169.8242999
 104 TORSION   8  9  4 16               2.5707955     147.2957324
 105 TORSION   9  4  5 17               2.8688315     164.3719346
 106 TORSION   9  8  7 19              -3.1302693    -179.3512193
 107 TORSION   9  4  3 15              -0.2402579     -13.7657652
 108 TORSION   9  4  3 14              -2.3134663    -132.5518557
 109 TORSION  10  9  8 20               0.1131226       6.4814448
 110 TORSION  10  9  4 16              -0.6060640     -34.7249067
 111 TORSION  11  1  2 13               0.2478526      14.2009078
 112 TORSION  11  1  6 18              -0.0694847      -3.9811826
 113 TORSION  12  1  6 18              -2.1125893    -121.0424513
 114 TORSION  12  1  2 13               2.7861580     159.6350924
 115 TORSION  13  2  3 15              -2.3291789    -133.4521231
 116 TORSION  13  2  3 14              -0.0397766      -2.2790326
 117 TORSION  14  3  4 16              -0.2310011     -13.2353877
 118 TORSION  15  3  4 16               1.8422073     105.5507028
 119 TORSION  16  4  5 17               0.5600209      32.0868332
 120 TORSION  17  5  6 18              -0.2987242     -17.1156381
 121 TORSION  18  6  7 19               0.1738542       9.9611129
 122 TORSION  19  7  8 20               0.0184420       1.0566488

     ------------------------------------------
     THE POINT GROUP IS C1 , NAXIS= 0, ORDER= 1
     ------------------------------------------

     DIMENSIONS OF THE SYMMETRY SUBSPACES ARE
 A   =   60

 ..... DONE SETTING UP THE RUN .....
 STEP CPU TIME =     0.07 TOTAL CPU TIME =          0.1 (      0.0 MIN)
 TOTAL WALL CLOCK TIME=          0.1 SECONDS, CPU UTILIZATION IS    77.78%


          -----------------------------
          STATIONARY POINT LOCATION RUN
          -----------------------------


           ** GEOMETRY CONSTRAINTS ARE BEING APPLIED. **

          TRANSFORMING DISPLACEMENT FROM INTERNALS TO CARTESIANS
          THE ROOT MEAN SQUARE ERROR IN ITERATION   1 IS   0.00000137
          THE ROOT MEAN SQUARE ERROR IN ITERATION   2 IS   0.00000000
 WARNING! THE RADIUS IN CARTESIANS IS    0.00947
 OBTAINING INITIAL HESSIAN, HESS=CALC    

     ---------------------------------
     HESSIAN MATRIX CONTROL PARAMETERS
     ---------------------------------
     METHOD=ANALYTIC   NVIB  =       2   VIBSIZ= 0.01000
     RDHESS=       F   PURIFY=       F   PRTIFC=       F
     VIBANL=       F   DECOMP=       F   PROJCT=       F
     SCLFAC= 1.00000   PRTSCN=       F   NPRT  =       0
     PULCOR=       F   NPUN  =       0   REDOVB=       T
     HSSTYP=GENERAL 
 Old integral subroutine is used

     ------------------------------
     CPHF RESPONSE SOLUTION OPTIONS
     ------------------------------
     POLAR  =       F     NWORD  =       0
     CPHF   =AO      

          ********************
          1 ELECTRON INTEGRALS
          ********************
 ...... END OF ONE-ELECTRON INTEGRALS ......
 STEP CPU TIME =     0.05 TOTAL CPU TIME =          0.1 (      0.0 MIN)
 TOTAL WALL CLOCK TIME=          0.2 SECONDS, CPU UTILIZATION IS    75.00%

          -------------
          GUESS OPTIONS
          -------------
          GUESS =HUCKEL            NORB  =       0          NORDER=       0
          MIX   =       F          PRTMO =       F          PUNMO =       F
          TOLZ  = 1.0E-08          TOLE  = 1.0E-05
          SYMDEN=       F          PURIFY=       F

 INITIAL GUESS ORBITALS GENERATED BY HUCKEL   ROUTINE.
 HUCKEL GUESS REQUIRES     53820 WORDS.

 SYMMETRIES FOR INITIAL GUESS ORBITALS FOLLOW.   BOTH SET(S).
    36 ORBITALS ARE OCCUPIED (   10 CORE ORBITALS).
    11=A       12=A       13=A       14=A       15=A       16=A       17=A   
    18=A       19=A       20=A       21=A       22=A       23=A       24=A   
    25=A       26=A       27=A       28=A       29=A       30=A       31=A   
    32=A       33=A       34=A       35=A       36=A       37=A       38=A   
    39=A       40=A       41=A       42=A       43=A       44=A       45=A   
    46=A   
 ...... END OF INITIAL ORBITAL SELECTION ......
 STEP CPU TIME =     0.03 TOTAL CPU TIME =          0.2 (      0.0 MIN)
 TOTAL WALL CLOCK TIME=          0.2 SECONDS, CPU UTILIZATION IS    83.33%

                    ----------------------
                    AO INTEGRAL TECHNOLOGY
                    ----------------------
     S,P,L SHELL ROTATED AXIS INTEGRALS, REPROGRAMMED BY
        KAZUYA ISHIMURA (IMS) AND JOSE SIERRA (SYNSTAR).
     S,P,D,L SHELL ROTATED AXIS INTEGRALS PROGRAMMED BY
        KAZUYA ISHIMURA (INSTITUTE FOR MOLECULAR SCIENCE).
     S,P,D,F,G SHELL TO TOTAL QUARTET ANGULAR MOMENTUM SUM 5,
        ERIC PROGRAM BY GRAHAM FLETCHER (ELORET AND NASA ADVANCED
        SUPERCOMPUTING DIVISION, AMES RESEARCH CENTER).
     S,P,D,F,G,L SHELL GENERAL RYS QUADRATURE PROGRAMMED BY
        MICHEL DUPUIS (PACIFIC NORTHWEST NATIONAL LABORATORY).

          --------------------
          2 ELECTRON INTEGRALS
          --------------------

 THE -PK- OPTION IS OFF, THE INTEGRALS ARE NOT IN SUPERMATRIX FORM.
 STORING   15000 INTEGRALS/RECORD ON DISK, USING 12 BYTES/INTEGRAL.
 TWO ELECTRON INTEGRAL EVALUATION REQUIRES   89821 WORDS OF MEMORY.
 SCHWARZ INEQUALITY OVERHEAD:      1797 INTEGRALS, T=        0.00
 II,JST,KST,LST =  1  1  1  1 NREC =         1 INTLOC =    1
 II,JST,KST,LST =  2  1  1  1 NREC =         1 INTLOC =    2
 II,JST,KST,LST =  3  1  1  1 NREC =         1 INTLOC =   34
 II,JST,KST,LST =  4  1  1  1 NREC =         1 INTLOC =  144
 II,JST,KST,LST =  5  1  1  1 NREC =         1 INTLOC = 1366
 II,JST,KST,LST =  6  1  1  1 NREC =         1 INTLOC = 1956
 II,JST,KST,LST =  7  1  1  1 NREC =         1 INTLOC = 6859
 II,JST,KST,LST =  8  1  1  1 NREC =         1 INTLOC = 8474
 II,JST,KST,LST =  9  1  1  1 NREC =         2 INTLOC = 5855
 II,JST,KST,LST = 10  1  1  1 NREC =         2 INTLOC = 9578
 II,JST,KST,LST = 11  1  1  1 NREC =         4 INTLOC = 4883
 II,JST,KST,LST = 12  1  1  1 NREC =         4 INTLOC =11975
 II,JST,KST,LST = 13  1  1  1 NREC =         7 INTLOC =11966
 II,JST,KST,LST = 14  1  1  1 NREC =         8 INTLOC = 8214
 II,JST,KST,LST = 15  1  1  1 NREC =        13 INTLOC = 5247
 II,JST,KST,LST = 16  1  1  1 NREC =        14 INTLOC = 6957
 II,JST,KST,LST = 17  1  1  1 NREC =        21 INTLOC = 9499
 II,JST,KST,LST = 18  1  1  1 NREC =        23 INTLOC = 5355
 II,JST,KST,LST = 19  1  1  1 NREC =        33 INTLOC =12376
 II,JST,KST,LST = 20  1  1  1 NREC =        35 INTLOC = 7943
 II,JST,KST,LST = 21  1  1  1 NREC =        47 INTLOC =10886
 II,JST,KST,LST = 22  1  1  1 NREC =        51 INTLOC = 7137
 II,JST,KST,LST = 23  1  1  1 NREC =        55 INTLOC =12299
 II,JST,KST,LST = 24  1  1  1 NREC =        59 INTLOC =14642
 II,JST,KST,LST = 25  1  1  1 NREC =        64 INTLOC = 9587
 II,JST,KST,LST = 26  1  1  1 NREC =        69 INTLOC =11864
 II,JST,KST,LST = 27  1  1  1 NREC =        75 INTLOC = 3367
 II,JST,KST,LST = 28  1  1  1 NREC =        80 INTLOC =13141
 II,JST,KST,LST = 29  1  1  1 NREC =        86 INTLOC =10742
 II,JST,KST,LST = 30  1  1  1 NREC =        92 INTLOC =12356
 SCHWARZ INEQUALITY TEST SKIPPED       25115 INTEGRAL BLOCKS.
 TOTAL NUMBER OF NONZERO TWO-ELECTRON INTEGRALS =             1473143
         99 INTEGRAL RECORDS WERE STORED ON DISK FILE  8.
  ...... END OF TWO-ELECTRON INTEGRALS .....
 STEP CPU TIME =     0.34 TOTAL CPU TIME =          0.5 (      0.0 MIN)
 TOTAL WALL CLOCK TIME=          0.5 SECONDS, CPU UTILIZATION IS    92.45%

          --------------------------
                 RHF SCF CALCULATION
          --------------------------

     NUCLEAR ENERGY =       505.4504255591
     MAXIT =   30     NPUNCH=    2
     EXTRAP=T  DAMP=F  SHIFT=F  RSTRCT=F  DIIS=F  DEM=F  SOSCF=T
     DENSITY MATRIX CONV=  1.00E-05
     SOSCF WILL OPTIMIZE     864 ORBITAL ROTATIONS, SOGTOL=   0.250
     MEMORY REQUIRED FOR RHF ITERS=     59496 WORDS.

 ITER EX DEM     TOTAL ENERGY        E CHANGE  DENSITY CHANGE     ORB. GRAD
   1  0  0     -415.4856820084  -415.4856820084   0.520835013   0.000000000
          ---------------START SECOND ORDER SCF---------------
   2  1  0     -415.9994961396    -0.5138141312   0.230504950   0.061208552
   3  2  0     -416.0321328221    -0.0326366825   0.111503048   0.049653239
   4  3  0     -416.0664454949    -0.0343126728   0.018093244   0.006112271
   5  4  0     -416.0673695478    -0.0009240529   0.004840978   0.003140084
   6  5  0     -416.0675087490    -0.0001392012   0.002324856   0.000834779
   7  6  0     -416.0675287647    -0.0000200158   0.000872128   0.000240441
   8  7  0     -416.0675307522    -0.0000019874   0.000313384   0.000101646
   9  8  0     -416.0675311676    -0.0000004155   0.000111741   0.000034238
  10  9  0     -416.0675312214    -0.0000000538   0.000053899   0.000016013
  11 10  0     -416.0675312298    -0.0000000084   0.000022382   0.000003281
  12 11  0     -416.0675312309    -0.0000000010   0.000009422   0.000002160
  13 12  0     -416.0675312310    -0.0000000002   0.000006020   0.000000850

          -----------------
          DENSITY CONVERGED
          -----------------
     TIME TO FORM FOCK OPERATORS=       0.3 SECONDS (       0.0 SEC/ITER)
     TIME TO SOLVE SCF EQUATIONS=       0.0 SECONDS (       0.0 SEC/ITER)

 FINAL RHF ENERGY IS     -416.0675312310 AFTER  13 ITERATIONS

          ------------
          EIGENVECTORS
          ------------

                      1          2          3          4          5
                  -20.2542   -11.1106   -11.0516   -11.0509   -11.0500
                     A          A          A          A          A   
    1  C  1  S    0.000000   0.000038  -0.019496  -0.000920  -0.002304
    2  C  1  S    0.000000   0.000034  -0.003439  -0.000217   0.000029
    3  C  1  X    0.000001   0.000015  -0.001912  -0.000086  -0.000007
    4  C  1  Y   -0.000003   0.000022  -0.000894  -0.000105  -0.000004
    5  C  1  Z    0.000002  -0.000027  -0.001438  -0.000118  -0.000083
    6  C  2  S    0.000000   0.000018  -0.000381   0.000124  -0.001405
    7  C  2  S   -0.000001   0.000013   0.000269   0.001873  -0.005508
    8  C  2  X   -0.000002   0.000028   0.000233  -0.000466   0.001592
    9  C  2  Y   -0.000006   0.000028   0.000052   0.000986  -0.002931
   10  C  2  Z    0.000004  -0.000022  -0.000059   0.000760  -0.002233
   11  C  3  S   -0.000007  -0.000329   0.006597  -0.296695   0.946931
   12  C  3  S    0.000027   0.000115   0.000361  -0.012828   0.032342
   13  C  3  X    0.000016  -0.000171   0.000047  -0.001381  -0.002004
   14  C  3  Y    0.000043  -0.000131   0.000040  -0.000658  -0.001092
   15  C  3  Z   -0.000017   0.000030   0.000063  -0.000909  -0.001053
   16  C  4  S   -0.000023  -0.001885  -0.048552   0.945371   0.297426
   17  C  4  S    0.000260  -0.005555  -0.001676   0.033865   0.007988
   18  C  4  X   -0.000264  -0.000456  -0.000090   0.000949   0.002288
   19  C  4  Y    0.000301  -0.003706  -0.000027   0.000497   0.001145
   20  C  4  Z    0.000200   0.001638   0.000218   0.000341   0.001347
   21  C  5  S    0.000005  -0.000297   0.009063  -0.001184  -0.001227
   22  C  5  S    0.000013   0.000090  -0.007014  -0.006030  -0.001795
   23  C  5  X   -0.000040  -0.000041  -0.001960   0.002840   0.000867
   24  C  5  Y   -0.000058  -0.000051   0.000144  -0.002707  -0.000791
   25  C  5  Z    0.000043   0.000012   0.004361  -0.000634  -0.000204
   26  C  6  S    0.000003  -0.000342   0.990178   0.048119   0.008131
   27  C  6  S    0.000015  -0.000069   0.036963   0.001957   0.000385
   28  C  6  X    0.000031   0.000069   0.000580   0.000102   0.000050
   29  C  6  Y   -0.000023  -0.000121   0.000921   0.000047  -0.000011
   30  C  6  Z   -0.000008  -0.000028   0.001752   0.000087   0.000038
   31  C  7  S    0.000007  -0.000415  -0.027752  -0.009705  -0.003134
   32  C  7  S    0.000016   0.000124  -0.007332  -0.000727  -0.000174
   33  C  7  X    0.000042   0.000001   0.000800   0.000167   0.000038
   34  C  7  Y    0.000052  -0.000018   0.003959   0.000180   0.000023
   35  C  7  Z   -0.000054   0.000004  -0.001829  -0.000186  -0.000045
   36  C  8  S   -0.000026  -0.000821  -0.001052  -0.000962  -0.000201
   37  C  8  S    0.000375  -0.006033   0.000380   0.000195   0.000081
   38  C  8  X   -0.000229   0.002996   0.000043   0.000046  -0.000012
   39  C  8  Y    0.000421   0.000169  -0.000194  -0.000080  -0.000026
   40  C  8  Z    0.000078  -0.003001   0.000057   0.000008  -0.000000
   41  C  9  S    0.000557   0.992509   0.000232   0.002641   0.001209
   42  C  9  S   -0.007139   0.033172   0.000239  -0.005606  -0.001693
   43  C  9  X    0.003477  -0.000129  -0.000114   0.000503   0.000154
   44  C  9  Y   -0.005053   0.000475  -0.000073   0.003604   0.001067
   45  C  9  Z   -0.001479  -0.000274   0.000200  -0.001876  -0.000547
   46  O 10  S    0.994275   0.000183   0.000006  -0.000016  -0.000015
   47  O 10  S    0.025896  -0.005838  -0.000067   0.000218   0.000118
   48  O 10  X    0.003057  -0.001000  -0.000022   0.000011  -0.000002
   49  O 10  Y   -0.004414   0.001441   0.000038  -0.000172  -0.000091
   50  O 10  Z   -0.001320   0.000456  -0.000007   0.000094   0.000020
   51  H 11  S   -0.000001  -0.000007   0.000326   0.000013  -0.000063
   52  H 12  S    0.000005  -0.000089   0.000125   0.000037  -0.000128
   53  H 13  S   -0.000002   0.000005  -0.000000  -0.000038   0.000099
   54  H 14  S    0.000003  -0.000064  -0.000060   0.002129  -0.006503
   55  H 15  S    0.000001  -0.000456  -0.000050   0.002123  -0.006494
   56  H 16  S   -0.000133  -0.000057   0.000209  -0.006602  -0.001965
   57  H 17  S   -0.000024  -0.000065   0.000072   0.000076   0.000022
   58  H 18  S   -0.000017  -0.000041  -0.006815  -0.000417  -0.000092
   59  H 19  S   -0.000024  -0.000062   0.000285   0.000024   0.000008
   60  H 20  S   -0.000213   0.000022  -0.000031  -0.000050  -0.000017

                      6          7          8          9         10
                  -11.0482   -11.0367   -11.0254   -11.0203   -11.0046
                     A          A          A          A          A   
    1  C  1  S   -0.000213   0.991907  -0.000713   0.002308  -0.008310
    2  C  1  S    0.000341   0.036420   0.000079   0.000192  -0.007913
    3  C  1  X   -0.000152  -0.001845   0.000010  -0.000013   0.003591
    4  C  1  Y    0.000106  -0.000216   0.000068  -0.000025   0.000865
    5  C  1  Z   -0.000182   0.000082  -0.000060  -0.000187  -0.002922
    6  C  2  S    0.000024   0.008982   0.000047  -0.007131   0.992141
    7  C  2  S   -0.000024  -0.007296   0.000016  -0.000709   0.035976
    8  C  2  X   -0.000011  -0.003570   0.000011  -0.000492   0.002130
    9  C  2  Y    0.000027  -0.000759  -0.000004  -0.000138   0.000251
   10  C  2  Z    0.000022   0.002876   0.000001  -0.000408   0.000135
   11  C  3  S    0.000267   0.002126  -0.000107   0.000782   0.002307
   12  C  3  S   -0.000011   0.000162   0.000013   0.000151  -0.005704
   13  C  3  X   -0.000007  -0.000101   0.000004  -0.000117  -0.001691
   14  C  3  Y   -0.000001  -0.000083   0.000012   0.000053   0.003142
   15  C  3  Z   -0.000023   0.000062  -0.000008  -0.000060   0.002322
   16  C  4  S    0.008879   0.000623   0.000792   0.002894   0.000313
   17  C  4  S    0.000311   0.000034   0.000235  -0.005759   0.000092
   18  C  4  X   -0.000060   0.000030   0.000047  -0.003064  -0.000027
   19  C  4  Y   -0.000020   0.000002   0.000018   0.002799   0.000044
   20  C  4  Z    0.000121   0.000083  -0.000009   0.000914   0.000050
   21  C  5  S   -0.001468  -0.002003  -0.006209   0.992122   0.007371
   22  C  5  S   -0.000217  -0.000116  -0.000348   0.035941  -0.000222
   23  C  5  X   -0.000069   0.000066  -0.000010  -0.000914   0.000488
   24  C  5  Y   -0.000209   0.000028  -0.000186  -0.000696   0.000256
   25  C  5  Z    0.000103   0.000016   0.000098  -0.002292   0.000322
   26  C  6  S    0.029197   0.020449   0.000688  -0.008231   0.000150
   27  C  6  S   -0.004958  -0.001939   0.000421  -0.007898   0.000158
   28  C  6  X   -0.000779   0.002011   0.000075   0.001676  -0.000002
   29  C  6  Y   -0.003877   0.000968   0.000109   0.000152  -0.000006
   30  C  6  Z    0.001513   0.001295  -0.000027  -0.004380  -0.000062
   31  C  7  S    0.991658  -0.000401  -0.015614   0.001719  -0.000024
   32  C  7  S    0.035727   0.000095  -0.008427   0.000112  -0.000016
   33  C  7  X   -0.000715  -0.000162   0.002214   0.000062  -0.000029
   34  C  7  Y    0.000944  -0.000060  -0.003816  -0.000115   0.000021
   35  C  7  Z    0.000434  -0.000142  -0.001435  -0.000250  -0.000008
   36  C  8  S    0.016185   0.000656   0.992024   0.006299  -0.000009
   37  C  8  S   -0.007127   0.000072   0.036423   0.000180  -0.000011
   38  C  8  X   -0.002141  -0.000022   0.000447  -0.000001  -0.000002
   39  C  8  Y    0.003718  -0.000028  -0.001530   0.000116   0.000002
   40  C  8  Z    0.001357  -0.000023  -0.000147  -0.000143  -0.000001
   41  C  9  S    0.000537  -0.000036   0.001802   0.000373  -0.000020
   42  C  9  S    0.000054   0.000012  -0.006250   0.000074   0.000001
   43  C  9  X   -0.000077  -0.000013  -0.002964  -0.000120  -0.000007
   44  C  9  Y    0.000231  -0.000014  -0.000369   0.000034  -0.000011
   45  C  9  Z    0.000012  -0.000005   0.003073  -0.000001  -0.000032
   46  O 10  S    0.000014   0.000001  -0.000019   0.000009   0.000000
   47  O 10  S   -0.000128  -0.000003   0.000307  -0.000077   0.000001
   48  O 10  X   -0.000052  -0.000001   0.000151   0.000001   0.000004
   49  O 10  Y    0.000040   0.000002  -0.000074   0.000048   0.000002
   50  O 10  Z    0.000029  -0.000001  -0.000112   0.000004   0.000002
   51  H 11  S   -0.000016  -0.006807  -0.000003  -0.000054   0.000152
   52  H 12  S   -0.001063  -0.006809  -0.000223  -0.000030   0.000021
   53  H 13  S    0.000006   0.000053  -0.000002   0.000079  -0.006909
   54  H 14  S    0.000001  -0.000110  -0.000001  -0.000014   0.000038
   55  H 15  S    0.000007   0.000010  -0.000015  -0.000077  -0.000097
   56  H 16  S   -0.000110  -0.000031  -0.000059   0.000013  -0.000044
   57  H 17  S   -0.000084   0.000015  -0.000010  -0.006872  -0.000088
   58  H 18  S   -0.000133  -0.000021  -0.000086   0.000166  -0.000024
   59  H 19  S   -0.006825   0.000015   0.000215  -0.000116   0.000002
   60  H 20  S    0.000024  -0.000004  -0.006839  -0.000099   0.000001

                     11         12         13         14         15
                   -1.3066    -1.0875    -1.0078    -0.9581    -0.9330
                     A          A          A          A          A   
    1  C  1  S   -0.000759  -0.055305  -0.125119   0.071748  -0.055663
    2  C  1  S    0.001840   0.145409   0.335298  -0.195877   0.158078
    3  C  1  X   -0.000040  -0.005681  -0.075618   0.044550   0.028432
    4  C  1  Y    0.000420   0.009243  -0.013252   0.006883   0.001844
    5  C  1  Z    0.000437   0.025015   0.050531  -0.010375  -0.001349
    6  C  2  S   -0.000851  -0.047118  -0.147963   0.069228   0.014867
    7  C  2  S    0.001892   0.118048   0.386303  -0.184317  -0.042529
    8  C  2  X    0.000256   0.024738   0.050696  -0.030413   0.050233
    9  C  2  Y    0.000714   0.017457   0.039675  -0.005503  -0.029688
   10  C  2  Z    0.000320  -0.004606  -0.017593   0.029388  -0.049600
   11  C  3  S   -0.002649  -0.035108  -0.096941   0.013534   0.088849
   12  C  3  S    0.006752   0.096638   0.270827  -0.035224  -0.259751
   13  C  3  X    0.001605   0.017405   0.016516   0.010179  -0.003012
   14  C  3  Y    0.001737  -0.008030  -0.046689   0.030899  -0.005489
   15  C  3  Z    0.000638  -0.006667  -0.039270   0.034345  -0.007528
   16  C  4  S   -0.021831  -0.073463  -0.013550  -0.107397   0.114883
   17  C  4  S    0.055288   0.197566   0.040816   0.305206  -0.333797
   18  C  4  X    0.004001   0.039213  -0.021587   0.053397   0.007625
   19  C  4  Y    0.026396  -0.012819  -0.021308  -0.029092  -0.050195
   20  C  4  Z   -0.011026  -0.025640  -0.001972   0.005726   0.010044
   21  C  5  S   -0.005093  -0.107909  -0.003262  -0.129974  -0.032602
   22  C  5  S    0.011747   0.273491   0.009391   0.353237   0.085155
   23  C  5  X   -0.002743  -0.003559  -0.019650  -0.027953   0.081646
   24  C  5  Y    0.004123   0.024615  -0.010906   0.019529  -0.057067
   25  C  5  Z   -0.001152  -0.067782   0.006117  -0.020573  -0.094030
   26  C  6  S   -0.003615  -0.127614   0.017678  -0.046086  -0.124706
   27  C  6  S    0.008587   0.332858  -0.046525   0.122668   0.350333
   28  C  6  X   -0.001087  -0.021558  -0.029119  -0.028642   0.012745
   29  C  6  Y    0.002809   0.046306  -0.051050  -0.040352  -0.012060
   30  C  6  Z    0.001385   0.039349   0.003149   0.111692   0.013150
   31  C  7  S   -0.006752  -0.111211   0.086165   0.098121  -0.023119
   32  C  7  S    0.016081   0.284366  -0.228744  -0.266968   0.066355
   33  C  7  X   -0.004688  -0.040273   0.025331   0.028650   0.024283
   34  C  7  Y    0.004676  -0.010842  -0.042352  -0.091082  -0.115573
   35  C  7  Z    0.003520   0.040658  -0.023554   0.001260  -0.003562
   36  C  8  S   -0.024647  -0.082998   0.088354   0.115727   0.074420
   37  C  8  S    0.058738   0.210352  -0.231681  -0.310447  -0.202995
   38  C  8  X   -0.021470   0.014180  -0.019056  -0.033085   0.032397
   39  C  8  Y   -0.002519  -0.064021   0.048558   0.045609   0.004118
   40  C  8  Z    0.021407  -0.000512   0.005898   0.030191  -0.034122
   41  C  9  S   -0.128037  -0.035413   0.022436  -0.000591   0.079043
   42  C  9  S    0.297745   0.096805  -0.063161   0.001143  -0.230377
   43  C  9  X   -0.083081   0.050231  -0.050679  -0.051157  -0.060177
[...]
 19   H            X  0.01110480 -0.00086976  0.00633572 -0.04595334 -0.01207458
                   Y -0.06347690  0.00250185 -0.02108036 -0.14666367 -0.02858395
                   Z  0.01777791 -0.00033040 -0.00375527  0.10010065  0.02228883
 20   H            X -0.00083179 -0.00022715  0.00245952 -0.05782018 -0.06352771
                   Y  0.01641014 -0.00010759  0.00718852 -0.06436603  0.01102530
                   Z -0.00847731 -0.00065687 -0.01893955  0.10896475  0.07627712

 TRANS. SAYVETZ    X -0.00000198  0.00000058  0.00000271 -0.00000009 -0.00000116
                   Y  0.00000006  0.00000093  0.00000012 -0.00000154  0.00000274
                   Z  0.00000119  0.00000120 -0.00000116 -0.00000026  0.00000112
               TOTAL  0.00000231  0.00000162  0.00000295  0.00000156  0.00000318

   ROT. SAYVETZ    X -0.00194699 -0.00365340  0.00033056  0.00031736  0.00069950
                   Y  0.00527576  0.00138110  0.01157807  0.00141179  0.00074504
                   Z -0.00089369  0.00354935 -0.00777148 -0.00135577 -0.00135547
               TOTAL  0.00569413  0.00527756  0.01394837  0.00198292  0.00169756

                           51          52          53          54          55
       FREQUENCY:      3634.34     3638.71     3689.50     3697.31     3699.06  
        SYMMETRY:         A           A           A           A           A   
    REDUCED MASS:      1.06235     1.06452     1.09084     1.09393     1.09619
    IR INTENSITY:      0.02530     0.10640     0.12793     0.07683     0.09947

  1   C            X  0.02397143  0.01554917 -0.00301886  0.00030977  0.00521334
                   Y -0.00666775 -0.00436500 -0.00065457  0.00091840  0.00379270
                   Z -0.05061927 -0.03478829  0.00556327 -0.00194414 -0.00968269
  2   C            X -0.00106446 -0.00481684  0.00278984 -0.00211240 -0.01403172
                   Y  0.00872191  0.00165073  0.01366483 -0.01198711 -0.07090646
                   Z -0.00489470  0.00561433 -0.00688437  0.00567877  0.03565157
  3   C            X -0.02616140  0.04142562  0.00340338 -0.00151248 -0.00432613
                   Y  0.02514530 -0.03925268 -0.00532099  0.00267841  0.01056103
                   Z  0.00554496 -0.00743899  0.00003996  0.00100775 -0.00076209
  4   C            X  0.00129229 -0.00130739  0.02470344  0.02374355  0.00363196
                   Y  0.00026631  0.00037997  0.00077065 -0.00147753 -0.00024688
                   Z -0.00325627  0.00028106 -0.05156188 -0.04692303 -0.00603818
  5   C            X  0.00035574  0.00030770  0.00311310 -0.00408684  0.00059132
                   Y -0.00312394  0.00043856 -0.03452754  0.00845559 -0.00224818
                   Z  0.00217249 -0.00086564  0.02646897 -0.00170200  0.00126713
  6   C            X -0.00236559  0.00082034 -0.02590763  0.04134587 -0.01304733
                   Y  0.00231567 -0.00037277  0.02469774 -0.03675325  0.01171092
                   Z  0.00071640  0.00096841  0.00602104 -0.01199892  0.00460998
  7   C            X  0.00073641  0.00001103  0.00598832 -0.01661880  0.00758827
                   Y  0.00010080  0.00011694 -0.00088099  0.00115414 -0.00025655
                   Z -0.00023023  0.00011237 -0.00728471  0.02045708 -0.00944928
  8   C            X -0.00002088 -0.00002111 -0.00100072  0.00274996 -0.00122137
                   Y -0.00050558  0.00020237 -0.00373529  0.01198950 -0.00526431
                   Z  0.00029391 -0.00001289  0.00225574 -0.00707331  0.00315832
  9   C            X  0.00023367 -0.00015054 -0.00035414 -0.00065160  0.00005543
                   Y -0.00011409 -0.00012098 -0.00106217 -0.00162016 -0.00001221
                   Z  0.00031278 -0.00014250  0.00067534  0.00130579 -0.00011324
 10   O            X -0.00001238 -0.00002079  0.00001319  0.00000842  0.00000153
                   Y  0.00001972  0.00001319  0.00005943  0.00025837  0.00000618
                   Z -0.00001637 -0.00001469 -0.00005137 -0.00011112  0.00002130
 11   H            X -0.22714790 -0.15158529  0.01963768 -0.00422270 -0.01761625
                   Y  0.49094127  0.32729416 -0.03827966  0.00775563  0.03354593
                   Z  0.19597295  0.13013795 -0.01485925  0.00326729  0.01355509
 12   H            X -0.01247173 -0.00777346  0.00279855 -0.00015775 -0.00006721
                   Y -0.41437152 -0.27884378  0.04487687 -0.01750139 -0.07286678
                   Z  0.36263076  0.24573523 -0.03711707  0.01503816  0.06195628
 13   H            X -0.02425280  0.00292657 -0.02601224  0.02296693  0.13823098
                   Y -0.13757736  0.02816547 -0.14994557  0.13095584  0.78809808
                   Z  0.07301533 -0.01258246  0.07905203 -0.06879857 -0.41403285
 14   H            X  0.27005276 -0.41371480 -0.02935260  0.01148633  0.02417084
                   Y  0.04045937 -0.06237559 -0.00377610  0.00145064  0.00230314
                   Z -0.24697481  0.37913144  0.02895130 -0.01182444 -0.02388785
 15   H            X  0.02479240 -0.04060658 -0.00232110  0.00103726  0.00562036
                   Y -0.30879779  0.47971475  0.05267544 -0.01862405 -0.07930128
                   Z  0.20074869 -0.31222645 -0.03265686  0.01207593  0.05434618
 16   H            X -0.01610077  0.00219185 -0.27641101 -0.25144706 -0.03345523
                   Y  0.00077498 -0.00015190  0.00429431  0.00490717  0.00043079
                   Z  0.03877227 -0.00533715  0.58867760  0.53203600  0.06918835
 17   H            X -0.00389610  0.00078973 -0.04824757  0.00954070 -0.00332077
                   Y  0.03653095 -0.00780743  0.40525451 -0.07333671  0.02797977
                   Z -0.02698425  0.00584705 -0.30350722  0.05327715 -0.02074301
 18   H            X  0.03021888 -0.00965119  0.30479730 -0.46800616  0.14700602
                   Y -0.02521856  0.00786888 -0.27317536  0.41904297 -0.13231974
                   Z -0.00633974  0.00174901 -0.07745674  0.12085549 -0.03894645
 19   H            X -0.00560985  0.00092271 -0.06655461  0.18575236 -0.08467061
                   Y -0.00054910 -0.00016950 -0.00284227  0.00845433 -0.00386714
                   Z  0.00763261 -0.00103419  0.08561020 -0.23742610  0.10836925
 20   H            X  0.00060331 -0.00015686  0.00576015 -0.02106608  0.00918454
                   Y  0.00626659 -0.00188020  0.04389692 -0.14998225  0.06541241
                   Z -0.00335109  0.00069921 -0.02170116  0.07372903 -0.03210388

 TRANS. SAYVETZ    X -0.00000002  0.00000048 -0.00000087 -0.00000015  0.00000045
                   Y  0.00000030  0.00000008 -0.00000100  0.00000074 -0.00000005
                   Z -0.00000161  0.00000030 -0.00000008  0.00000020  0.00000070
               TOTAL  0.00000164  0.00000057  0.00000132  0.00000078  0.00000084

   ROT. SAYVETZ    X  0.00034089 -0.00015322 -0.00045359  0.00000885  0.00007383
                   Y -0.00031150 -0.00084918  0.00056005  0.00105300 -0.00012067
                   Z -0.00019696  0.00073329  0.00028219 -0.00066563 -0.00000334
               TOTAL  0.00050203  0.00113239  0.00077397  0.00124577  0.00014150

                           56          57          58          59          60
       FREQUENCY:      3704.98     3715.89     3736.10     3785.88     3787.67  
        SYMMETRY:         A           A           A           A           A   
    REDUCED MASS:      1.09180     1.10090     1.10598     1.11706     1.11747
    IR INTENSITY:      0.49430     0.07552     0.06450     0.00062     0.01702

  1   C            X -0.00088566 -0.00052960  0.00009425  0.01807745  0.01132007
                   Y  0.00031073  0.00137608 -0.00032003 -0.07674076 -0.04693272
                   Z  0.00062541 -0.00071951  0.00012054  0.01614446  0.00934605
  2   C            X  0.00155088 -0.00134467  0.00001765 -0.00084462 -0.00089908
                   Y  0.00676127 -0.00598487  0.00009368 -0.00050076 -0.00477568
                   Z -0.00349614  0.00282112 -0.00002204  0.00103138  0.00195891
  3   C            X  0.00022752  0.00010039  0.00005314  0.01953576 -0.03259314
                   Y -0.00058714  0.00092089 -0.00025449  0.02731307 -0.04416962
                   Z  0.00051191 -0.00119332  0.00016901 -0.03590526  0.05886706
  4   C            X  0.00742947 -0.01546867  0.00154488  0.00012171 -0.00006356
                   Y -0.00106344  0.00327709 -0.00012800 -0.00015072  0.00029386
                   Z -0.01384475  0.02537781 -0.00256087 -0.00001789  0.00051313
  5   C            X -0.00344032  0.00830150 -0.00067285 -0.00008203  0.00010083
                   Y  0.01539414 -0.05442410  0.00457855 -0.00012810 -0.00052472
                   Z -0.00987732  0.04343156 -0.00365141  0.00023679  0.00046002
  6   C            X  0.01810036  0.02945218 -0.00406502  0.00033328  0.00067477
                   Y -0.01883603 -0.02564981  0.00542298  0.00002929 -0.00022308
                   Z -0.00347259 -0.01203198  0.00069222 -0.00021811 -0.00015627
  7   C            X  0.03910177  0.00190776 -0.03190767  0.00012621  0.00020011
                   Y  0.00274656  0.00222188  0.00573295 -0.00009618 -0.00016630
                   Z -0.05009613 -0.00316633  0.03789818 -0.00046593 -0.00044599
  8   C            X -0.00705806 -0.00118142 -0.00447547 -0.00003999 -0.00016024
                   Y -0.03421276 -0.01069396 -0.06866732 -0.00008142  0.00005261
                   Z  0.01943357  0.00486459  0.02748194 -0.00002014 -0.00000169
  9   C            X  0.00070359  0.00021857  0.00148953  0.00002533 -0.00012390
                   Y  0.00043191  0.00108118  0.00001616  0.00004278 -0.00001761
                   Z -0.00104368 -0.00058417 -0.00186963  0.00010277 -0.00012176
 10   O            X -0.00005250  0.00003607 -0.00022156  0.00001811 -0.00002369
                   Y -0.00013042 -0.00017863  0.00014055 -0.00000072 -0.00000018
                   Z  0.00010052  0.00001645  0.00023335  0.00000074 -0.00001505
 11   H            X  0.00320040  0.00277226 -0.00059955 -0.21971942 -0.13447848
                   Y -0.00624865 -0.00540782  0.00160278  0.47463804  0.29117393
                   Z -0.00244006 -0.00205948  0.00057702  0.19328836  0.11812290
 12   H            X -0.00040130  0.00018541 -0.00036239  0.01158132  0.00742905
                   Y  0.00284705 -0.01010887  0.00265113  0.43118477  0.26105982
                   Z -0.00286975  0.00836898 -0.00240949 -0.38444688 -0.23261661
 13   H            X -0.01341705  0.01160342 -0.00002307  0.00515372  0.01051223
                   Y -0.07625044  0.06620413 -0.00075732  0.01025523  0.05681160
                   Z  0.03989835 -0.03480415  0.00037807 -0.00870494 -0.02770690
 14   H            X -0.00036816 -0.00392187 -0.00006140 -0.25783395  0.42299523
                   Y -0.00016005 -0.00042891 -0.00006530 -0.03660802  0.06076356
                   Z  0.00014693  0.00394216  0.00008751  0.23365001 -0.38342074
 15   H            X -0.00022495  0.00059741  0.00005557  0.02661143 -0.04278430
                   Y  0.00593574 -0.01024052  0.00289135 -0.28776732  0.46729967
                   Z -0.00428199  0.00728829 -0.00175032  0.18792347 -0.30435839
 16   H            X -0.07346964  0.13519919 -0.01207133 -0.00133412  0.00360135
                   Y  0.00112334 -0.00329844  0.00036846  0.00022989 -0.00038019
                   Z  0.15546367 -0.28304299  0.02545948  0.00324665 -0.00878403
 17   H            X  0.02167127 -0.07531743  0.00639151 -0.00012603 -0.00069344
                   Y -0.16794101  0.60871677 -0.04830121  0.00176712  0.00604542
                   Z  0.12552434 -0.45856203  0.03641446 -0.00144200 -0.00442838
 18   H            X -0.21419888 -0.31763280  0.04888766 -0.00561785 -0.00691366
                   Y  0.19408992  0.28528133 -0.04530789  0.00436098  0.00581900
                   Z  0.05398260  0.08399970 -0.01236956  0.00108624  0.00149885
 19   H            X -0.44470393 -0.02633908  0.31482396 -0.00281192 -0.00293538
                   Y -0.02443679 -0.00277032  0.01502214  0.00004241 -0.00003316
                   Z  0.56694769  0.03360409 -0.40037208  0.00324123  0.00334722
 20   H            X  0.05918353  0.01680770  0.09800046  0.00024326  0.00016575
                   Y  0.41906077  0.12120755  0.70698464  0.00097400  0.00001450
                   Z -0.20455828 -0.05911485 -0.34338526 -0.00029145  0.00011263

 TRANS. SAYVETZ    X  0.00000039 -0.00000007 -0.00000019  0.00000004  0.00000000
                   Y  0.00000023 -0.00000028  0.00000016 -0.00000004 -0.00000007
                   Z -0.00000008 -0.00000034  0.00000060  0.00000008  0.00000003
               TOTAL  0.00000046  0.00000045  0.00000065  0.00000010  0.00000007

   ROT. SAYVETZ    X  0.00004123  0.00022366 -0.00004769 -0.00017597 -0.00092204
                   Y  0.00036563 -0.00011343  0.00000895 -0.00048028  0.00084195
                   Z -0.00028520 -0.00026539  0.00005968  0.00051736  0.00073009
               TOTAL  0.00046553  0.00036514  0.00007692  0.00072753  0.00144640

 REFERENCE ON SAYVETZ CONDITIONS - A. SAYVETZ, J.CHEM.PHYS., 7, 383-389(1939).

 NOTE - THE MODES J,K ARE ORTHONORMALIZED ACCORDING TO
 SUM ON I   M(I) * (X(I,J)*X(I,K) + Y(I,J)*Y(I,K) + Z(I,J)*Z(I,K)) = DELTA(J,K)

  MODE FREQ(CM**-1)  SYMMETRY  RED. MASS  IR INTENS.
     1    1105.037    A        9.337536    0.024493
     2       0.072    A        6.634362    0.000023
     3       0.011    A        6.702474    0.000000
     4       0.005    A        6.703496    0.000000
     5       1.791    A        4.846670    0.014708
     6      29.507    A        5.891366    0.016270
     7      35.792    A        4.148467    0.001075
     8     110.735    A        4.132933    0.028004
     9     202.454    A        3.552140    0.015160
    10     257.733    A        4.163999    0.029890
    11     373.630    A        5.303192    0.031090
    12     410.181    A        5.704805    0.169196
    13     456.160    A        1.990673    0.060345
    14     487.186    A        3.523032    0.073523
    15     497.133    A        4.519504    0.137147
    16     536.888    A        1.988633    0.234300
    17     570.918    A        2.521757    0.186639
    18     603.776    A        5.425959    0.018136
    19     674.650    A        5.938394    0.036227
    20     837.151    A        3.394299    0.044709
    21     852.860    A        4.080756    0.044641
    22     924.924    A        1.631608    1.209189
    23     935.615    A        1.774976    0.149199
    24     971.336    A        1.615377    0.876942
    25     995.140    A        1.364973    0.224670
    26    1023.978    A        1.418911    0.043219
    27    1084.996    A        1.840086    0.188562
    28    1122.432    A        2.888359    0.002584
    29    1171.608    A        1.971654    0.073765
    30    1201.750    A        1.125588    0.032749
    31    1209.690    A        1.271828    0.004303
    32    1228.753    A        1.503057    0.137574
    33    1260.348    A        1.270397    0.221332
    34    1278.536    A        1.151199    0.415516
    35    1305.197    A        1.232854    0.016333
    36    1328.613    A        1.260994    0.107560
    37    1355.717    A        1.266649    0.030128
    38    1358.662    A        1.122963    0.019498
    39    1419.225    A        1.832360    0.645093
    40    1471.294    A        1.330323    0.101018
    41    1484.852    A        1.782001    0.004817
    42    1600.510    A        1.604239    0.151303
    43    1639.631    A        1.714842    0.150550
    44    1668.152    A        1.505926    0.060472
    45    1727.109    A        2.566245    0.327348
    46    1758.637    A        1.892841    0.050074
    47    1811.292    A        1.277776    0.196579
    48    1863.181    A        2.593610    0.054729
    49    2004.896    A        7.008175    0.061524
    50    2075.456    A       10.553654    1.845762
    51    3634.336    A        1.062354    0.025302
    52    3638.711    A        1.064525    0.106402
    53    3689.503    A        1.090838    0.127929
    54    3697.309    A        1.093932    0.076832
    55    3699.055    A        1.096187    0.099469
    56    3704.979    A        1.091798    0.494301
    57    3715.887    A        1.100903    0.075520
    58    3736.102    A        1.105981    0.064503
    59    3785.881    A        1.117058    0.000622
    60    3787.669    A        1.117466    0.017024

     -------------------------------
     THERMOCHEMISTRY AT T=  298.15 K
     -------------------------------

 USING IDEAL GAS, RIGID ROTOR, HARMONIC NORMAL MODE APPROXIMATIONS.
 P=  1.01325E+05 PASCAL.
 ALL FREQUENCIES ARE SCALED BY   1.00000
 THE MOMENTS OF INERTIA ARE (IN AMU*BOHR**2)
            865.18369          1321.62274          1660.66972
 THE ROTATIONAL SYMMETRY NUMBER IS  1.0
 THE ROTATIONAL CONSTANTS ARE (IN GHZ)
      2.08405     1.36430     1.08576
   1 IMAGINARY FREQUENCY VIBRATION(S) IS(ARE) EXCLUDED
     FROM THE FOLLOWING THERMOCHEMICAL ANALYSIS.
      8 -     60 VIBRATIONAL MODES ARE USED IN THERMOCHEMISTRY.
 THE HARMONIC ZERO POINT ENERGY IS (SCALED BY   1.000)
        0.191918 HARTREE/MOLECULE    42121.209166 CM**-1/MOLECULE 
      120.430701 KCAL/MOL              503.882054 KJ/MOL

               Q               LN Q
 ELEC.     1.00000E+00       0.000000
 TRANS.    6.10192E+07      17.926699
 ROT.      4.93277E+05      13.108826
 VIB.      1.47794E+01       2.693234
 TOT.      4.44851E+14      33.728759

              E         H         G         CV        CP        S
           KJ/MOL    KJ/MOL    KJ/MOL   J/MOL-K   J/MOL-K   J/MOL-K
 ELEC.      0.000     0.000     0.000     0.000     0.000     0.000
 TRANS.     3.718     6.197   -44.439    12.472    20.786   169.836
 ROT.       3.718     3.718   -32.496    12.472    12.472   121.464
 VIB.     515.201   515.201   497.206    94.217    94.217    60.355
 TOTAL    522.637   525.116   420.270   119.161   127.475   351.655
 VIB. THERMAL CORRECTION E(T)-E(0) = H(T)-H(0) =     11318.546 J/MOL

              E         H         G         CV        CP        S
         KCAL/MOL  KCAL/MOL  KCAL/MOL CAL/MOL-K CAL/MOL-K CAL/MOL-K
 ELEC.      0.000     0.000     0.000     0.000     0.000     0.000
 TRANS.     0.889     1.481   -10.621     2.981     4.968    40.592
 ROT.       0.889     0.889    -7.767     2.981     2.981    29.031
 VIB.     123.136   123.136   118.835    22.519    22.519    14.425
 TOTAL    124.913   125.506   100.447    28.480    30.467    84.048
 VIB. THERMAL CORRECTION E(T)-E(0) = H(T)-H(0) =      2705.197 CAL/MOL

     *******************************************************
     * THIS IS NOT A STATIONARY POINT ON THE MOLECULAR PES *
     *     THE VIBRATIONAL ANALYSIS IS NOT VALID !!!       *
     *******************************************************
 ......END OF NORMAL COORDINATE ANALYSIS......
 STEP CPU TIME =     0.03 TOTAL CPU TIME =        186.2 (      3.1 MIN)
 TOTAL WALL CLOCK TIME=        186.7 SECONDS, CPU UTILIZATION IS    99.71%
               580000  WORDS OF DYNAMIC MEMORY USED
 EXECUTION OF GAMESS TERMINATED NORMALLY Fri Nov 12 21:08:16 2021
 DDI: 263640 bytes (0.3 MB / 0 MWords) used by master data server.

 ----------------------------------------
 CPU timing information for all processes
 ========================================
 0: 182.780 + 3.394 = 186.174
 ----------------------------------------
 ddikick.x: exited gracefully.
----- accounting info -----
Files used on the master node chemcompute-node-0.novalocal were:
-rw-r--r--. 1 chemcomp chemcomp     1526 Nov 12 21:05 /scratch/305545/341406.F05
-rw-rw-r--. 1 chemcomp chemcomp 17821584 Nov 12 21:07 /scratch/305545/341406.F08
-rw-rw-r--. 1 chemcomp chemcomp 85196800 Nov 12 21:08 /scratch/305545/341406.F10
-rw-rw-r--. 1 chemcomp chemcomp   878880 Nov 12 21:08 /scratch/305545/341406.F18
Fri Nov 12 21:08:20 UTC 2021
0.162u 0.108s 3:10.45 0.1%	0+0k 8+216io 0pf+0w
Finishing Up...
Looking for IR data...
Looking for Raman data...
vibramans not found
Looking for thermodynamics data...
Looking for UV-Vis data...
305545
