----- GAMESS execution script 'rungms' -----
This job is running on host chemcompute-node-0.novalocal
under operating system Linux at Fri Nov 12 23:33:35 UTC 2021
SLURM has assigned the following compute nodes to this run:
chemcompute-node-0
Available scratch disk space (Kbyte units) at beginning of the job is
Filesystem     1K-blocks     Used Available Use% Mounted on
/dev/sda1       62903276 16804280  46098996  27% /
GAMESS temporary binary files will be written to /scratch/305571
GAMESS supplementary output files will be written to /data/slurm/341437
Copying input file 341437.inp to your run's scratch directory...
The generated host list is
chemcompute-node-0.novalocal

 Distributed Data Interface kickoff program.
 Initiating 1 compute processes on 1 nodes to run the following command:
 /data/gamess-2019R1-ddi/gamess.00.x 341437 

          ******************************************************
          *         GAMESS VERSION = 30 JUN 2019 (R1)          *
          *             FROM IOWA STATE UNIVERSITY             *
          * M.W.SCHMIDT, K.K.BALDRIDGE, J.A.BOATZ, S.T.ELBERT, *
          *   M.S.GORDON, J.H.JENSEN, S.KOSEKI, N.MATSUNAGA,   *
          *          K.A.NGUYEN, S.J.SU, T.L.WINDUS,           *
          *       TOGETHER WITH M.DUPUIS, J.A.MONTGOMERY       *
          *         J.COMPUT.CHEM.  14, 1347-1363(1993)        *
          **************** 64 BIT LINUX VERSION ****************

  SINCE 1993, STUDENTS AND POSTDOCS WORKING AT IOWA STATE UNIVERSITY
  AND ALSO IN THEIR VARIOUS JOBS AFTER LEAVING ISU HAVE MADE IMPORTANT
  CONTRIBUTIONS TO THE CODE:
     IVANA ADAMOVIC, CHRISTINE AIKENS, YURI ALEXEEV, POOJA ARORA,
     ANDREY ASADCHEV, ROB BELL, PRADIPTA BANDYOPADHYAY, JONATHAN BENTZ,
     COLLEEN BERTONI, BRETT BODE, KURT BRORSEN, CALEB CARLIN, GALINA CHABAN,
     WEI CHEN, CHEOL HO CHOI, PAUL DAY, ALBERT DEFUSCO, NUWAN DESILVA,
     TIM DUDLEY, DMITRI FEDOROV, ALEX FINDLATER, GRAHAM FLETCHER, 
     MARK FREITAG, KURT GLAESEMANN, ANASTASIA GUNINA,
     DAN KEMP, GRANT MERRILL, NORIYUKI MINEZAWA, JONATHAN MULLIN,
     TAKESHI NAGATA, SEAN NEDD, HEATHER NETZLOFF, BOSILJKA NJEGIC, RYAN OLSON,
     MIKE PAK, BUU PHAM,
     SPENCER PRUITT, LUKE ROSKOP, JIM SHOEMAKER, LYUDMILA SLIPCHENKO,
     TONY SMITH, SAROM SOK LEANG, JIE SONG, TETSUYA TAKETSUGU, SIMON WEBB,
     PENG XU, SOOHAENG YOO, FEDERICO ZAHARIEV

  ADDITIONAL CODE HAS BEEN PROVIDED BY COLLABORATORS IN OTHER GROUPS:
     IOWA STATE UNIVERSITY:
          JOE IVANIC, AARON WEST, LAIMUTIS BYTAUTAS, KLAUS RUEDENBERG
     UNIVERSITY OF TOKYO: KIMIHIKO HIRAO, TAKAHITO NAKAJIMA,
          TAKAO TSUNEDA, MUNEAKI KAMIYA, SUSUMU YANAGISAWA,
          KIYOSHI YAGI, MAHITO CHIBA, SEIKEN TOKURA, NAOAKI KAWAKAMI
     UNIVERSITY OF AARHUS: FRANK JENSEN
     UNIVERSITY OF IOWA: VISVALDAS KAIRYS, HUI LI
     NATIONAL INST. OF STANDARDS AND TECHNOLOGY: WALT STEVENS, DAVID GARMER
     UNIVERSITY OF PISA: BENEDETTA MENNUCCI, JACOPO TOMASI
     UNIVERSITY OF MEMPHIS: HENRY KURTZ, PRAKASHAN KORAMBATH
     UNIVERSITY OF ALBERTA: TOBY ZENG, MARIUSZ KLOBUKOWSKI
     UNIVERSITY OF NEW ENGLAND: MARK SPACKMAN
     MIE UNIVERSITY: HIROAKI UMEDA
     NAT. INST. OF ADVANCED INDUSTRIAL SCIENCE AND TECHNOLOGY: KAZUO KITAURA
     MICHIGAN STATE UNIVERSITY:
          KAROL KOWALSKI, MARTA WLOCH, JEFFREY GOUR, JESSE LUTZ,
          WEI LI, JUN SHEN, J. EMILIANO DEUSTUA, PIOTR PIECUCH
     UNIVERSITY OF MINNESOTA:
          YINAN SHU
     UNIVERSITY OF SILESIA: MONIKA MUSIAL, STANISLAW KUCHARSKI
     FACULTES UNIVERSITAIRES NOTRE-DAME DE LA PAIX:
          OLIVIER QUINET, BENOIT CHAMPAGNE
     UNIVERSITY OF CALIFORNIA - SANTA BARBARA: BERNARD KIRTMAN
     INSTITUTE FOR MOLECULAR SCIENCE:
          KAZUYA ISHIMURA, MICHIO KATOUDA, AND SHIGERU NAGASE
     UNIVERSITY OF NOTRE DAME: ANNA POMOGAEVA, DAN CHIPMAN
     KYUSHU UNIVERSITY:
          HARUYUKI NAKANO,
          FENG LONG GU, JACEK KORCHOWIEC, MARCIN MAKOWSKI, AND YURIKO AOKI,
          HIROTOSHI MORI AND EISAKU MIYOSHI
     PENNSYLVANIA STATE UNIVERSITY:
          TZVETELIN IORDANOV, CHET SWALINA, JONATHAN SKONE,
          SHARON HAMMES-SCHIFFER
     WASEDA UNIVERSITY:
          MASATO KOBAYASHI, TOMOKO AKAMA, TSUGUKI TOUMA,
          TAKESHI YOSHIKAWA, YASUHIRO IKABATA, JUNJI SEINO,
          YUYA NAKAJIMA, HIROMI NAKAI
     NANJING UNIVERSITY: SHUHUA LI
     UNIVERSITY OF NEBRASKA:
          PEIFENG SU, DEJUN SI, NANDUN THELLAMUREGE, YALI WANG, HUI LI
     UNIVERSITY OF ZURICH: ROBERTO PEVERATI, KIM BALDRIDGE
     N. COPERNICUS UNIVERSITY AND JACKSON STATE UNIVERSITY:
          MARIA BARYSZ
     UNIVERSITY OF COPENHAGEN: Jimmy Kromann, CASPER STEINMANN
     TOKYO INSTITUTE OF TECHNOLOGY: HIROYA NAKATA
     NAGOYA UNIVERSITY: YOSHIO NISHIMOTO, STEPHAN IRLE
     MOSCOW STATE UNIVERSITY: VLADIMIR MIRONOV
     A.N.NESMEYANOV INSTITUTE OF ORGANOELEMENT COMPOUNDS OF RUSSIAN ACADEMY OF SCIENCES:
          IGOR S. GERASIMOV

 EXECUTION OF GAMESS BEGUN Fri Nov 12 23:33:36 2021

            ECHO OF THE FIRST FEW INPUT CARDS -
 INPUT CARD>!File created by the GAMESS Input Deck Generator Plugin for Avogadro            
 INPUT CARD> $BASIS GBASIS=STO NGAUSS=3 $END                                                
 INPUT CARD> $CONTRL SCFTYP=RHF RUNTYP=IRC $END                                             
 INPUT CARD> $STATPT HESS=READ ihrep=5 $END                                                 
 INPUT CARD> $irc npoint=100 saddle=.t. tsengy=.t. forwrd=.f. opttol=0.0005 stride=0.1 $end 
 INPUT CARD>                                                                                
 INPUT CARD> $DATA                                                                          
 INPUT CARD>Title                                                                           
 INPUT CARD>C1                                                                              
 INPUT CARD>C     6.0     0.33251148    -0.03636171    -3.48460293                          
 INPUT CARD>C     6.0    -0.70271039     0.07651871    -2.53989244                          
 INPUT CARD>C     6.0    -0.67319691     1.14229834    -1.62517357                          
 INPUT CARD>C     6.0     0.97345519     0.98903614    -0.62603658                          
 INPUT CARD>C     6.0     1.64806747    -0.13054550    -1.14228213                          
 INPUT CARD>C     6.0     1.99722898    -0.06618199    -2.50463772                          
 INPUT CARD>C     6.0     2.59269738     1.25545275    -2.93670940                          
 INPUT CARD>C     6.0     2.42107844     2.35778213    -2.23739600                          
 INPUT CARD>C     6.0     1.59738231     2.35417819    -0.96928573                          
 INPUT CARD>O     8.0     1.43438959     3.34684157    -0.27388453                          
 INPUT CARD>H     1.0     0.56330568     0.84639066    -4.06939602                          
 INPUT CARD>H     1.0     0.35497451    -0.94018608    -4.08523703                          
 INPUT CARD>H     1.0    -1.16734922    -0.84426159    -2.20638227                          
 INPUT CARD>H     1.0    -1.42869043     1.15386617    -0.84646839                          
 INPUT CARD>H     1.0    -0.49567950     2.13046122    -2.03400612                          
 INPUT CARD>H     1.0     0.63213086     0.93427604     0.40408662                          
 INPUT CARD>H     1.0     1.48756397    -1.09963024    -0.68591332                          
 INPUT CARD>H     1.0     2.49494171    -0.93106985    -2.93369365                          
 INPUT CARD>H     1.0     3.17228913     1.25515842    -3.85348463                          
 INPUT CARD>H     1.0     2.86963511     3.29957914    -2.52482367                          
 INPUT CARD> $END                                                                           
 INPUT CARD>                                                                                
 INPUT CARD> $HESS                                                                          
 INPUT CARD>ENERGY IS     -416.0940647111 E(NUC) IS      511.4290616748                     
 INPUT CARD> 1  1 2.30280046E-01 7.30766196E-02-3.10047142E-01-1.84314995E-01-9.15009836E-02
 INPUT CARD> 1  2 8.18928503E-02 1.10059379E-01 7.62875477E-02 1.30790632E-01-1.45403454E-01
 INPUT CARD> 1  3 8.22606474E-02-2.56307907E-02 4.85621112E-02-7.01514127E-02-1.70460572E-01
 INPUT CARD> 1  4 1.10355338E-01 9.76161354E-03 2.08585817E-01-3.75645258E-02-2.51446178E-02
 INPUT CARD> 1  5-1.56916859E-02-6.21409162E-03 9.85088927E-03 3.17341261E-03 1.02222780E-02
 INPUT CARD> 1  6-2.79854063E-03 7.96893352E-03-1.47298460E-03 3.59704719E-03-1.39379412E-03
 INPUT CARD> 1  7-4.39434055E-02-7.06750321E-02 7.79230312E-02-5.15701013E-02 2.17464620E-03
 INPUT CARD> 1  8 2.44184662E-02-6.52392290E-03 8.69465385E-03 9.43351888E-03-1.82629520E-03
 INPUT CARD> 1  9-4.74384800E-04-2.97914313E-03-1.96255484E-02 5.47300607E-04-9.22851784E-03
 INPUT CARD> 1 10 7.70070449E-03 6.74911773E-04 2.23968436E-03-2.00331416E-04-1.50658370E-03
 INPUT CARD> 1 11 1.64914725E-03-2.33742991E-02-3.99720437E-03-1.51731544E-02 1.55233529E-03
 INPUT CARD> 1 12-1.91740352E-05 7.40104360E-04 3.29757328E-03-6.59281604E-04 1.78888792E-03
 INPUT CARD> 2  1 7.30766196E-02 8.90498168E-01 5.31340781E-02 3.06108193E-03-1.50211946E-01
 INPUT CARD> 2  2-2.30138216E-02 2.59661000E-02 3.40941061E-04-3.49773509E-02 6.55396665E-03
 INPUT CARD> 2  3-3.92023717E-03-2.10872345E-03 1.00949893E-03 3.64825891E-03 1.01876620E-02
 INPUT CARD> 2  4-6.01757869E-03-4.63245576E-02-1.05404302E-02-1.32260428E-02-1.32923912E-03
 INPUT CARD> 2  5-7.28815149E-03-1.41671554E-04-1.44498733E-03-6.20424447E-04-1.78548451E-03
    1000000 WORDS OF MEMORY AVAILABLE

     BASIS OPTIONS
     -------------
     GBASIS=STO          IGAUSS=       3      POLAR=NONE    
     NDFUNC=       0     NFFUNC=       0     DIFFSP=       F
     NPFUNC=       0      DIFFS=       F     BASNAM=        


     RUN TITLE
     ---------
 Title                                                                           

 THE POINT GROUP OF THE MOLECULE IS C1      
 THE ORDER OF THE PRINCIPAL AXIS IS     0

 ATOM      ATOMIC                      COORDINATES (BOHR)
           CHARGE         X                   Y                   Z
 C           6.0     0.6283555850       -0.0687136683       -6.5849447137
 C           6.0    -1.3279300858        0.1445993948       -4.7997007499
 C           6.0    -1.2721576957        2.1586308588       -3.0711327298
 C           6.0     1.8395635704        1.8690072966       -1.1830375945
 C           6.0     3.1143959276       -0.2466952239       -2.1586002264
 C           6.0     3.7742155069       -0.1250658264       -4.7330789893
 C           6.0     4.8994876173        2.3724616880       -5.5495760716
 C           6.0     4.5751748464        4.4555621644       -4.2280653660
 C           6.0     3.0186148635        4.4487517054       -1.8316844335
 O           8.0     2.7106032847        6.3246134916       -0.5175667140
 H           1.0     1.0644933825        1.5994464260       -7.6900434133
 H           1.0     0.6708045565       -1.7766940687       -7.7199785816
 H           1.0    -2.2059701578       -1.5954230671       -4.1694579145
 H           1.0    -2.6998334340        2.1804908878       -1.5995933144
 H           1.0    -0.9366984327        4.0259879333       -3.8437142241
 H           1.0     1.1945541138        1.7655257125        0.7636129871
 H           1.0     2.8110882925       -2.0779998414       -1.2961882261
 H           1.0     4.7147561872       -1.7594668919       -5.5438771304
 H           1.0     5.9947572095        2.3719054850       -7.2820300486
 H           1.0     5.4228240426        6.2353004494       -4.7712249036

          INTERNUCLEAR DISTANCES (ANGS.)
          ------------------------------

                1 C          2 C          3 C          4 C          5 C     

   1 C       0.0000000    1.4060243 *  2.4203649 *  3.1038124    2.6881266 *
   2 C       1.4060243 *  0.0000000    1.4048017 *  2.7027881 *  2.7426897 *
   3 C       2.4203649 *  1.4048017 *  0.0000000    1.9321561 *  2.6910191 *
   4 C       3.1038124    2.7027881 *  1.9321561 *  0.0000000    1.4053733 *
   5 C       2.6881266 *  2.7426897 *  2.6910191 *  1.4053733 *  0.0000000  
   6 C       1.9319693 *  2.7039377 *  3.0602380    2.3855273 *  1.4078598 *
   7 C       2.6603406 *  3.5223659    3.5212208    2.8341016 *  2.4562748 *
   8 C       3.4131454    3.8799128    3.3803487    2.5623345 *  2.8264102 *
   9 C       3.6934266    3.5979111    2.6560067 *  1.5397136 *  2.4912544 *
  10 O       4.7925893    4.5163038    3.3358528    2.4281100 *  3.5905422  
  11 H       1.0837438 *  2.1295259 *  2.7551267 *  3.4706332    3.2709491  
  12 H       1.0854328 *  2.1308392 *  3.3831627    4.0088009    3.3149043  
  13 H       2.1298198 *  1.0839532 *  2.1280062 *  3.2313336    3.0932622  
  14 H       3.3879534    2.1343405 *  1.0850281 *  2.4178633 *  3.3471866  
  15 H       2.7359190 *  2.1254323 *  1.0840306 *  2.3331494 *  3.2408292  
  16 H       4.0191810    3.3443327    2.4217867 *  1.0865794 *  2.1347666 *
  17 H       3.2089484    3.1012686    3.2522825    2.1518411 *  1.0831247 *
  18 H       2.4041856 *  3.3756915    4.0060183    3.3655623    2.1370986 *
  19 H       3.1414065    4.2579734    4.4458824    3.9143470    3.4050031  
  20 H       4.2996132    4.8114445    4.2443951    3.5411156    3.8947919  

                6 C          7 C          8 C          9 C         10 O     

   1 C       1.9319693 *  2.6603406 *  3.4131454    3.6934266    4.7925893  
   2 C       2.7039377 *  3.5223659    3.8799128    3.5979111    4.5163038  
   3 C       3.0602380    3.5212208    3.3803487    2.6560067 *  3.3358528  
   4 C       2.3855273 *  2.8341016 *  2.5623345 *  1.5397136 *  2.4281100 *
   5 C       1.4078598 *  2.4562748 *  2.8264102 *  2.4912544 *  3.5905422  
   6 C       0.0000000    1.5126093 *  2.4752108 *  2.8940156 *  4.1160391  
   7 C       1.5126093 *  0.0000000    1.3166709 *  2.4634540 *  3.5785780  
   8 C       2.4752108 *  1.3166709 *  0.0000000    1.5121481 *  2.4098072 *
   9 C       2.8940156 *  2.4634540 *  1.5121481 *  0.0000000    1.2229187 *
  10 O       4.1160391    3.5785780    2.4098072 *  1.2229187 *  0.0000000  
  11 H       2.3102799 *  2.3598181 *  3.0152691    3.5990862    4.6278450  
  12 H       2.4411426 *  3.3387646    4.3081198    4.7016556    5.8369642  
  13 H       3.2724485    4.3680806    4.8094552    4.4050159    5.2980127  
  14 H       3.9968696    4.5333197    4.2667099    3.2577522    3.6516052  
  15 H       3.3557902    3.3344542    2.9326642 *  2.3589376 *  2.8814538 *
  16 H       3.3652766    3.8868874    3.4934415    2.1986323 *  2.6312994 *
  17 H       2.1530286 *  3.4400318    3.9028513    3.4671534    4.4658377  
  18 H       1.0862035 *  2.1887088 *  3.3625635    3.9315857    5.1478036  
  19 H       2.2239817 *  1.0846214 *  2.0956715 *  3.4650800    4.4954388  
  20 H       3.4770459    2.1035202 *  1.0820348 *  2.2208351 *  2.6699982 *

               11 H         12 H         13 H         14 H         15 H     

   1 C       1.0837438 *  1.0854328 *  2.1298198 *  3.3879534    2.7359190 *
   2 C       2.1295259 *  2.1308392 *  1.0839532 *  2.1343405 *  2.1254323 *
   3 C       2.7551267 *  3.3831627    2.1280062 *  1.0850281 *  1.0840306 *
   4 C       3.4706332    4.0088009    3.2313336    2.4178633 *  2.3331494 *
   5 C       3.2709491    3.3149043    3.0932622    3.3471866    3.2408292  
   6 C       2.3102799 *  2.4411426 *  3.2724485    3.9968696    3.3557902  
   7 C       2.3598181 *  3.3387646    4.3680806    4.5333197    3.3344542  
   8 C       3.0152691    4.3081198    4.8094552    4.2667099    2.9326642 *
   9 C       3.5990862    4.7016556    4.4050159    3.2577522    2.3589376 *
  10 O       4.6278450    5.8369642    5.2980127    3.6516052    2.8814538 *
  11 H       0.0000000    1.7987521 *  3.0535703    3.8012961    2.6292773 *
  12 H       1.7987521 *  0.0000000    2.4200757 *  4.2492514    3.7894637  
  13 H       3.0535703    2.4200757 *  0.0000000    2.4310861 *  3.0544770  
  14 H       3.8012961    4.2492514    2.4310861 *  0.0000000    1.7984697 *
  15 H       2.6292773 *  3.7894637    3.0544770    1.7984697 *  0.0000000  
  16 H       4.4748752    4.8728278    3.6353641    2.4205561 *  2.9405971 *
  17 H       4.0111352    3.5865838    3.0701145    3.6889787    4.0229466  
  18 H       2.8601405 *  2.4301430 *  3.7348216    4.9090077    4.3733540  
  19 H       2.6496233 *  3.5791770    5.0944059    5.4974012    4.1869620  
  20 H       3.7044558    5.1704948    5.7939678    5.0888666    3.5962593  

               16 H         17 H         18 H         19 H         20 H     

   1 C       4.0191810    3.2089484    2.4041856 *  3.1414065    4.2996132  
   2 C       3.3443327    3.1012686    3.3756915    4.2579734    4.8114445  
   3 C       2.4217867 *  3.2522825    4.0060183    4.4458824    4.2443951  
   4 C       1.0865794 *  2.1518411 *  3.3655623    3.9143470    3.5411156  
   5 C       2.1347666 *  1.0831247 *  2.1370986 *  3.4050031    3.8947919  
   6 C       3.3652766    2.1530286 *  1.0862035 *  2.2239817 *  3.4770459  
   7 C       3.8868874    3.4400318    2.1887088 *  1.0846214 *  2.1035202 *
   8 C       3.4934415    3.9028513    3.3625635    2.0956715 *  1.0820348 *
   9 C       2.1986323 *  3.4671534    3.9315857    3.4650800    2.2208351 *
  10 O       2.6312994 *  4.4658377    5.1478036    4.4954388    2.6699982 *
  11 H       4.4748752    4.0111352    2.8601405 *  2.6496233 *  3.7044558  
  12 H       4.8728278    3.5865838    2.4301430 *  3.5791770    5.1704948  
  13 H       3.6353641    3.0701145    3.7348216    5.0944059    5.7939678  
  14 H       2.4205561 *  3.6889787    4.9090077    5.4974012    5.0888666  
  15 H       2.9405971 *  4.0229466    4.3733540    4.1869620    3.5962593  
  16 H       0.0000000    2.4610243 *  4.2532760    4.9681267    4.3794520  
  17 H       2.4610243 *  0.0000000    2.4689550 *  4.2914842    4.9643484  
  18 H       4.2532760    2.4689550 *  0.0000000    2.4666595 *  4.2668443  
  19 H       4.9681267    4.2914842    2.4666595 *  0.0000000    2.4569484 *
  20 H       4.3794520    4.9643484    4.2668443    2.4569484 *  0.0000000  

  * ... LESS THAN  3.000


     ATOMIC BASIS SET
     ----------------
 THE CONTRACTED PRIMITIVE FUNCTIONS HAVE BEEN UNNORMALIZED
 THE CONTRACTED BASIS FUNCTIONS ARE NOW NORMALIZED TO UNITY

  SHELL TYPE  PRIMITIVE        EXPONENT          CONTRACTION COEFFICIENT(S)

 C         

      1   S       1            71.6168373    0.154328967295
      1   S       2            13.0450963    0.535328142282
      1   S       3             3.5305122    0.444634542185

      2   L       4             2.9412494   -0.099967229187    0.155916274999
      2   L       5             0.6834831    0.399512826089    0.607683718598
      2   L       6             0.2222899    0.700115468880    0.391957393099

 C         

      3   S       7            71.6168373    0.154328967295
      3   S       8            13.0450963    0.535328142282
      3   S       9             3.5305122    0.444634542185

      4   L      10             2.9412494   -0.099967229187    0.155916274999
      4   L      11             0.6834831    0.399512826089    0.607683718598
      4   L      12             0.2222899    0.700115468880    0.391957393099

 C         

      5   S      13            71.6168373    0.154328967295
      5   S      14            13.0450963    0.535328142282
      5   S      15             3.5305122    0.444634542185

      6   L      16             2.9412494   -0.099967229187    0.155916274999
      6   L      17             0.6834831    0.399512826089    0.607683718598
      6   L      18             0.2222899    0.700115468880    0.391957393099

 C         

      7   S      19            71.6168373    0.154328967295
      7   S      20            13.0450963    0.535328142282
      7   S      21             3.5305122    0.444634542185

      8   L      22             2.9412494   -0.099967229187    0.155916274999
      8   L      23             0.6834831    0.399512826089    0.607683718598
      8   L      24             0.2222899    0.700115468880    0.391957393099

 C         

      9   S      25            71.6168373    0.154328967295
      9   S      26            13.0450963    0.535328142282
      9   S      27             3.5305122    0.444634542185

     10   L      28             2.9412494   -0.099967229187    0.155916274999
     10   L      29             0.6834831    0.399512826089    0.607683718598
     10   L      30             0.2222899    0.700115468880    0.391957393099

 C         

     11   S      31            71.6168373    0.154328967295
     11   S      32            13.0450963    0.535328142282
     11   S      33             3.5305122    0.444634542185

     12   L      34             2.9412494   -0.099967229187    0.155916274999
     12   L      35             0.6834831    0.399512826089    0.607683718598
     12   L      36             0.2222899    0.700115468880    0.391957393099

 C         

     13   S      37            71.6168373    0.154328967295
     13   S      38            13.0450963    0.535328142282
     13   S      39             3.5305122    0.444634542185

     14   L      40             2.9412494   -0.099967229187    0.155916274999
     14   L      41             0.6834831    0.399512826089    0.607683718598
     14   L      42             0.2222899    0.700115468880    0.391957393099

 C         

     15   S      43            71.6168373    0.154328967295
     15   S      44            13.0450963    0.535328142282
     15   S      45             3.5305122    0.444634542185

     16   L      46             2.9412494   -0.099967229187    0.155916274999
     16   L      47             0.6834831    0.399512826089    0.607683718598
     16   L      48             0.2222899    0.700115468880    0.391957393099

 C         

     17   S      49            71.6168373    0.154328967295
     17   S      50            13.0450963    0.535328142282
     17   S      51             3.5305122    0.444634542185

     18   L      52             2.9412494   -0.099967229187    0.155916274999
     18   L      53             0.6834831    0.399512826089    0.607683718598
     18   L      54             0.2222899    0.700115468880    0.391957393099

 O         

     19   S      55           130.7093214    0.154328967295
     19   S      56            23.8088661    0.535328142282
     19   S      57             6.4436083    0.444634542185

     20   L      58             5.0331513   -0.099967229187    0.155916274999
     20   L      59             1.1695961    0.399512826089    0.607683718598
     20   L      60             0.3803890    0.700115468880    0.391957393099

 H         

     21   S      61             3.4252509    0.154328967295
     21   S      62             0.6239137    0.535328142282
     21   S      63             0.1688554    0.444634542185

 H         

     22   S      64             3.4252509    0.154328967295
     22   S      65             0.6239137    0.535328142282
     22   S      66             0.1688554    0.444634542185

 H         

     23   S      67             3.4252509    0.154328967295
     23   S      68             0.6239137    0.535328142282
     23   S      69             0.1688554    0.444634542185

 H         

     24   S      70             3.4252509    0.154328967295
     24   S      71             0.6239137    0.535328142282
     24   S      72             0.1688554    0.444634542185

 H         

     25   S      73             3.4252509    0.154328967295
     25   S      74             0.6239137    0.535328142282
     25   S      75             0.1688554    0.444634542185

 H         

     26   S      76             3.4252509    0.154328967295
     26   S      77             0.6239137    0.535328142282
     26   S      78             0.1688554    0.444634542185

 H         

     27   S      79             3.4252509    0.154328967295
     27   S      80             0.6239137    0.535328142282
     27   S      81             0.1688554    0.444634542185

 H         

     28   S      82             3.4252509    0.154328967295
     28   S      83             0.6239137    0.535328142282
     28   S      84             0.1688554    0.444634542185

 H         

     29   S      85             3.4252509    0.154328967295
     29   S      86             0.6239137    0.535328142282
     29   S      87             0.1688554    0.444634542185

 H         

     30   S      88             3.4252509    0.154328967295
     30   S      89             0.6239137    0.535328142282
     30   S      90             0.1688554    0.444634542185

 TOTAL NUMBER OF BASIS SET SHELLS             =   30
 NUMBER OF CARTESIAN GAUSSIAN BASIS FUNCTIONS =   60
 NUMBER OF ELECTRONS                          =   72
 CHARGE OF MOLECULE                           =    0
 SPIN MULTIPLICITY                            =    1
 NUMBER OF OCCUPIED ORBITALS (ALPHA)          =   36
 NUMBER OF OCCUPIED ORBITALS (BETA )          =   36
 TOTAL NUMBER OF ATOMS                        =   20
 THE NUCLEAR REPULSION ENERGY IS      511.4290616748

     $CONTRL OPTIONS
     ---------------
 SCFTYP=RHF          RUNTYP=IRC          EXETYP=RUN     
 MPLEVL=       0     CITYP =NONE         CCTYP =NONE         VBTYP =NONE    
 DFTTYP=NONE         TDDFT =NONE    
 MULT  =       1     ICHARG=       0     NZVAR =       0     COORD =UNIQUE  
 PP    =NONE         RELWFN=NONE         LOCAL =NONE         NUMGRD=       F
 ISPHER=      -1     NOSYM =       0     MAXIT =      30     UNITS =ANGS    
 PLTORB=       F     MOLPLT=       F     AIMPAC=       F     FRIEND=        
 NPRINT=       7     IREST =       0     GEOM  =INPUT   
 NORMF =       0     NORMP =       0     ITOL  =      20     ICUT  =       9
 INTTYP=BEST         GRDTYP=BEST         QMTTOL= 1.0E-06

     $SYSTEM OPTIONS
     ---------------
  REPLICATED MEMORY=     1000000 WORDS (ON EVERY NODE).
 DISTRIBUTED MEMDDI=           0 MILLION WORDS IN AGGREGATE,
 MEMDDI DISTRIBUTED OVER   1 PROCESSORS IS           0 WORDS/PROCESSOR.
 TOTAL MEMORY REQUESTED ON EACH PROCESSOR=     1000000 WORDS.
 TIMLIM=      525600.00 MINUTES, OR     365.0 DAYS.
 PARALL= F  BALTYP=  DLB     KDIAG=    0  COREFL= F
 MXSEQ2=     300 MXSEQ3=     150  mem10=         0

          ----------------
          PROPERTIES INPUT
          ----------------

     MOMENTS            FIELD           POTENTIAL          DENSITY
 IEMOM =       1   IEFLD =       0   IEPOT =       0   IEDEN =       0
 WHERE =COMASS     WHERE =NUCLEI     WHERE =NUCLEI     WHERE =NUCLEI  
 OUTPUT=BOTH       OUTPUT=BOTH       OUTPUT=BOTH       OUTPUT=BOTH    
 IEMINT=       0   IEFINT=       0                     IEDINT=       0
                                                       MORB  =       0
          EXTRAPOLATION IN EFFECT
          SOSCF IN EFFECT
 ORBITAL PRINTING OPTION: NPREO=     1    60     2     1

     -------------------------------
     INTEGRAL TRANSFORMATION OPTIONS
     -------------------------------
     NWORD  =            0
     CUTOFF = 1.0E-09     MPTRAN =       0
     DIRTRF =       F     AOINTS =DUP     

          ----------------------
          INTEGRAL INPUT OPTIONS
          ----------------------
 NOPK  =       1 NORDER=       0 SCHWRZ=       T

     ------------------------------------------
     THE POINT GROUP IS C1 , NAXIS= 0, ORDER= 1
     ------------------------------------------

     DIMENSIONS OF THE SYMMETRY SUBSPACES ARE
 A   =   60

 ..... DONE SETTING UP THE RUN .....
 STEP CPU TIME =     0.09 TOTAL CPU TIME =          0.1 (      0.0 MIN)
 TOTAL WALL CLOCK TIME=          0.1 SECONDS, CPU UTILIZATION IS    81.82%

          -----------------------------
          INTRINSIC REACTION COORDINATE
          -----------------------------
          PACE   =GS2     
          STRIDE = 0.10000 BOHR*SQRT(AMU)
          NPOINT =     100
          NEXTPT =       0
          STOTAL =  0.0000 BOHR*SQRT(AMU)
          SAB    =  0.0000 BOHR*SQRT(AMU)
          NPRT   =       0
          NPUN   =       0

          SADDLE =       T
          TSENGY =       T
          FORWRD =       F
          EVIB   = 0.00050 HARTREE
          FREQ   =     0.0 CM**-1

          STABLZ =       F
          ELBOW  =  175.00 DEGREES
          DELTA  = 0.02500 BOHR

          READQB =       F
          EB     =        0.0000000000 HARTREES
          GBNORM =        0.0000000000 HARTREES/SQRT(AMU)-BOHR

          GCUT   = 0.0000500 HARTREES/SQRT(AMU)-BOHR
          RCUT   = 0.0005000 BOHR
          ACUT   =    5.00 DEGREES
          MXOPT  =      20
          IHUPD  =       2

 ATOMIC MASSES USED (IN AMU) ARE
     C             12.0000
     C             12.0000
     C             12.0000
     C             12.0000
     C             12.0000
     C             12.0000
     C             12.0000
     C             12.0000
     C             12.0000
     O             15.9949
     H              1.0078
     H              1.0078
     H              1.0078
     H              1.0078
     H              1.0078
     H              1.0078
     H              1.0078
     H              1.0078
     H              1.0078
     H              1.0078

 JUMP AWAY FROM SADDLE POINT WILL BE FOUND FROM THE INPUT HESSIAN MATRIX

 COMPUTING WAVEFUNCTION AT TRANSITION STATE...

          ********************
          1 ELECTRON INTEGRALS
          ********************
 ...... END OF ONE-ELECTRON INTEGRALS ......
 STEP CPU TIME =     0.03 TOTAL CPU TIME =          0.1 (      0.0 MIN)
 TOTAL WALL CLOCK TIME=          0.2 SECONDS, CPU UTILIZATION IS    75.00%

          -------------
          GUESS OPTIONS
          -------------
          GUESS =HUCKEL            NORB  =       0          NORDER=       0
          MIX   =       F          PRTMO =       F          PUNMO =       F
          TOLZ  = 1.0E-08          TOLE  = 1.0E-05
          SYMDEN=       F          PURIFY=       F

 INITIAL GUESS ORBITALS GENERATED BY HUCKEL   ROUTINE.
 HUCKEL GUESS REQUIRES     53820 WORDS.

 SYMMETRIES FOR INITIAL GUESS ORBITALS FOLLOW.   BOTH SET(S).
    36 ORBITALS ARE OCCUPIED (   10 CORE ORBITALS).
    11=A       12=A       13=A       14=A       15=A       16=A       17=A   
    18=A       19=A       20=A       21=A       22=A       23=A       24=A   
    25=A       26=A       27=A       28=A       29=A       30=A       31=A   
    32=A       33=A       34=A       35=A       36=A       37=A       38=A   
    39=A       40=A       41=A       42=A       43=A       44=A       45=A   
    46=A   
 ...... END OF INITIAL ORBITAL SELECTION ......
 STEP CPU TIME =     0.03 TOTAL CPU TIME =          0.2 (      0.0 MIN)
 TOTAL WALL CLOCK TIME=          0.2 SECONDS, CPU UTILIZATION IS    78.95%

                    ----------------------
                    AO INTEGRAL TECHNOLOGY
                    ----------------------
     S,P,L SHELL ROTATED AXIS INTEGRALS, REPROGRAMMED BY
        KAZUYA ISHIMURA (IMS) AND JOSE SIERRA (SYNSTAR).
     S,P,D,L SHELL ROTATED AXIS INTEGRALS PROGRAMMED BY
        KAZUYA ISHIMURA (INSTITUTE FOR MOLECULAR SCIENCE).
     S,P,D,F,G SHELL TO TOTAL QUARTET ANGULAR MOMENTUM SUM 5,
        ERIC PROGRAM BY GRAHAM FLETCHER (ELORET AND NASA ADVANCED
        SUPERCOMPUTING DIVISION, AMES RESEARCH CENTER).
     S,P,D,F,G,L SHELL GENERAL RYS QUADRATURE PROGRAMMED BY
        MICHEL DUPUIS (PACIFIC NORTHWEST NATIONAL LABORATORY).

          --------------------
          2 ELECTRON INTEGRALS
          --------------------

 THE -PK- OPTION IS OFF, THE INTEGRALS ARE NOT IN SUPERMATRIX FORM.
 STORING   15000 INTEGRALS/RECORD ON DISK, USING 12 BYTES/INTEGRAL.
 TWO ELECTRON INTEGRAL EVALUATION REQUIRES   89821 WORDS OF MEMORY.
 SCHWARZ INEQUALITY OVERHEAD:      1797 INTEGRALS, T=        0.00
 II,JST,KST,LST =  1  1  1  1 NREC =         1 INTLOC =    1
 II,JST,KST,LST =  2  1  1  1 NREC =         1 INTLOC =    2
 II,JST,KST,LST =  3  1  1  1 NREC =         1 INTLOC =   34
 II,JST,KST,LST =  4  1  1  1 NREC =         1 INTLOC =  144
 II,JST,KST,LST =  5  1  1  1 NREC =         1 INTLOC = 1366
 II,JST,KST,LST =  6  1  1  1 NREC =         1 INTLOC = 1962
 II,JST,KST,LST =  7  1  1  1 NREC =         1 INTLOC = 6862
 II,JST,KST,LST =  8  1  1  1 NREC =         1 INTLOC = 8482
 II,JST,KST,LST =  9  1  1  1 NREC =         2 INTLOC = 5902
 II,JST,KST,LST = 10  1  1  1 NREC =         2 INTLOC = 9697
 II,JST,KST,LST = 11  1  1  1 NREC =         4 INTLOC = 5063
 II,JST,KST,LST = 12  1  1  1 NREC =         4 INTLOC =12163
 II,JST,KST,LST = 13  1  1  1 NREC =         7 INTLOC =12256
 II,JST,KST,LST = 14  1  1  1 NREC =         8 INTLOC = 8651
 II,JST,KST,LST = 15  1  1  1 NREC =        13 INTLOC = 6129
 II,JST,KST,LST = 16  1  1  1 NREC =        14 INTLOC = 8746
 II,JST,KST,LST = 17  1  1  1 NREC =        21 INTLOC =12898
 II,JST,KST,LST = 18  1  1  1 NREC =        23 INTLOC = 9003
 II,JST,KST,LST = 19  1  1  1 NREC =        34 INTLOC = 2006
 II,JST,KST,LST = 20  1  1  1 NREC =        35 INTLOC =12889
 II,JST,KST,LST = 21  1  1  1 NREC =        48 INTLOC = 2839
 II,JST,KST,LST = 22  1  1  1 NREC =        52 INTLOC = 3662
 II,JST,KST,LST = 23  1  1  1 NREC =        56 INTLOC = 3528
 II,JST,KST,LST = 24  1  1  1 NREC =        60 INTLOC = 8002
 II,JST,KST,LST = 25  1  1  1 NREC =        65 INTLOC = 4744
 II,JST,KST,LST = 26  1  1  1 NREC =        70 INTLOC = 8244
 II,JST,KST,LST = 27  1  1  1 NREC =        76 INTLOC =  253
 II,JST,KST,LST = 28  1  1  1 NREC =        81 INTLOC =10469
 II,JST,KST,LST = 29  1  1  1 NREC =        87 INTLOC = 8826
 II,JST,KST,LST = 30  1  1  1 NREC =        93 INTLOC =11986
 SCHWARZ INEQUALITY TEST SKIPPED       24115 INTEGRAL BLOCKS.
 TOTAL NUMBER OF NONZERO TWO-ELECTRON INTEGRALS =             1489947
        100 INTEGRAL RECORDS WERE STORED ON DISK FILE  8.
  ...... END OF TWO-ELECTRON INTEGRALS .....
 STEP CPU TIME =     0.35 TOTAL CPU TIME =          0.5 (      0.0 MIN)
 TOTAL WALL CLOCK TIME=          0.5 SECONDS, CPU UTILIZATION IS    92.59%

          --------------------------
                 RHF SCF CALCULATION
          --------------------------

     NUCLEAR ENERGY =       511.4290616748
     MAXIT =   30     NPUNCH=    2
     EXTRAP=T  DAMP=F  SHIFT=F  RSTRCT=F  DIIS=F  DEM=F  SOSCF=T
     DENSITY MATRIX CONV=  1.00E-05
     SOSCF WILL OPTIMIZE     864 ORBITAL ROTATIONS, SOGTOL=   0.250
     MEMORY REQUIRED FOR RHF ITERS=     59496 WORDS.

 ITER EX DEM     TOTAL ENERGY        E CHANGE  DENSITY CHANGE     ORB. GRAD
   1  0  0     -415.5142737734  -415.5142737734   0.525859379   0.000000000
          ---------------START SECOND ORDER SCF---------------
   2  1  0     -416.0270672767    -0.5127935033   0.279919871   0.066088363
   3  2  0     -416.0575277803    -0.0304605036   0.127659216   0.049836479
   4  3  0     -416.0929946916    -0.0354669113   0.018958765   0.007796465
   5  4  0     -416.0939324511    -0.0009377595   0.004365221   0.003106945
   6  5  0     -416.0940492390    -0.0001167879   0.001933036   0.000765419
   7  6  0     -416.0940624973    -0.0000132583   0.000582370   0.000260788
   8  7  0     -416.0940644594    -0.0000019621   0.000212957   0.000072953
   9  8  0     -416.0940646622    -0.0000002028   0.000106791   0.000030747
  10  9  0     -416.0940647028    -0.0000000405   0.000079805   0.000016900
  11 10  0     -416.0940647095    -0.0000000068   0.000029244   0.000004080
  12 11  0     -416.0940647109    -0.0000000013   0.000010622   0.000001594
  13 12  0     -416.0940647110    -0.0000000002   0.000004626   0.000000697
  14 13  0     -416.0940647111    -0.0000000000   0.000001179   0.000000249

          -----------------
          DENSITY CONVERGED
          -----------------
     TIME TO FORM FOCK OPERATORS=       0.3 SECONDS (       0.0 SEC/ITER)
     TIME TO SOLVE SCF EQUATIONS=       0.1 SECONDS (       0.0 SEC/ITER)

 FINAL RHF ENERGY IS     -416.0940647111 AFTER  14 ITERATIONS

          ------------
          EIGENVECTORS
          ------------

                      1          2          3          4          5
                  -20.2645   -11.1197   -11.0567   -11.0499   -11.0469
                     A          A          A          A          A   
    1  C  1  S   -0.000000   0.000023  -0.026127  -0.005784   0.004745
    2  C  1  S    0.000003  -0.000004  -0.004001   0.000031   0.000145
    3  C  1  X    0.000001   0.000008  -0.002312  -0.000190  -0.000025
    4  C  1  Y   -0.000002   0.000014   0.000038  -0.000030   0.000009
    5  C  1  Z   -0.000001   0.000002  -0.001424  -0.000238  -0.000024
    6  C  2  S   -0.000001   0.000011  -0.000490   0.000059  -0.001577
    7  C  2  S    0.000012  -0.000036   0.000325   0.000058   0.002278
    8  C  2  X   -0.000004   0.000048   0.000193   0.000047   0.000022
    9  C  2  Y    0.000002  -0.000006  -0.000013   0.000040   0.001175
   10  C  2  Z    0.000009  -0.000045  -0.000109   0.000003   0.001034
   11  C  3  S   -0.000005  -0.000235  -0.000702   0.000851  -0.319156
   12  C  3  S   -0.000002   0.000319  -0.000025   0.000065  -0.014555
   13  C  3  X    0.000027  -0.000220  -0.000077   0.000010  -0.001907
   14  C  3  Y    0.000021   0.000031   0.000019   0.000022   0.000300
   15  C  3  Z    0.000032  -0.000157   0.000040   0.000023  -0.000973
   16  C  4  S   -0.000024  -0.001691  -0.004273  -0.008204   0.939030
   17  C  4  S    0.000270  -0.005340  -0.000085  -0.000325   0.035031
   18  C  4  X   -0.000097  -0.001621  -0.000022  -0.000093   0.000724
   19  C  4  Y    0.000301  -0.003606  -0.000038  -0.000026  -0.000549
   20  C  4  Z    0.000352   0.000680   0.000204   0.000142  -0.000114
   21  C  5  S    0.000003  -0.000284   0.003095  -0.001096   0.004059
   22  C  5  S    0.000030   0.000057  -0.006845   0.000031  -0.006587
   23  C  5  X   -0.000057  -0.000037  -0.001241  -0.000110   0.002045
   24  C  5  Y   -0.000033  -0.000030  -0.000128  -0.000079  -0.003453
   25  C  5  Z    0.000029   0.000001   0.004390   0.000053  -0.001694
   26  C  6  S    0.000003  -0.000243   0.991558   0.018908   0.004183
   27  C  6  S    0.000006  -0.000053   0.036317  -0.004974   0.000158
   28  C  6  X    0.000019  -0.000011   0.001022  -0.001642   0.000102
   29  C  6  Y   -0.000031  -0.000097   0.000306  -0.003649  -0.000173
   30  C  6  Z   -0.000019  -0.000030   0.001284   0.001017  -0.000017
   31  C  7  S    0.000005  -0.000271  -0.018109   0.991816   0.008070
   32  C  7  S    0.000054   0.000108  -0.006636   0.035848   0.000220
   33  C  7  X    0.000035  -0.000049   0.001596  -0.000277   0.000111
   34  C  7  Y    0.000061  -0.000053   0.003761   0.001452   0.000010
   35  C  7  Z   -0.000031   0.000051  -0.001407   0.000828  -0.000122
   36  C  8  S   -0.000025  -0.001006  -0.000981   0.020134  -0.001146
   37  C  8  S    0.000269  -0.005677   0.000303  -0.007398   0.000014
   38  C  8  X    0.000015   0.002191  -0.000021  -0.000606   0.000046
   39  C  8  Y    0.000477  -0.000187  -0.000168   0.003814   0.000036
   40  C  8  Z    0.000191  -0.003484   0.000038   0.002440   0.000030
   41  C  9  S    0.000547   0.992569   0.000254   0.000332   0.002459
   42  C  9  S   -0.007208   0.032683  -0.000002   0.000161  -0.005398
   43  C  9  X    0.000854  -0.000049  -0.000036  -0.000018   0.001518
   44  C  9  Y   -0.005192   0.000455   0.000067   0.000128   0.003564
   45  C  9  Z   -0.003625   0.000086   0.000118   0.000075  -0.001049
   46  O 10  S    0.994266   0.000160   0.000005   0.000013  -0.000018
   47  O 10  S    0.026004  -0.005797  -0.000052  -0.000116   0.000222
   48  O 10  X    0.000744  -0.000231  -0.000004  -0.000018  -0.000056
   49  O 10  Y   -0.004564   0.001385   0.000031   0.000041  -0.000201
   50  O 10  Z   -0.003197   0.000995   0.000013   0.000047   0.000063
   51  H 11  S   -0.000002   0.000008   0.000337  -0.000975  -0.000033
   52  H 12  S   -0.000002   0.000002   0.000336  -0.000018  -0.000017
   53  H 13  S   -0.000002   0.000007  -0.000001   0.000001  -0.000018
   54  H 14  S   -0.000007  -0.000036  -0.000022  -0.000016   0.002364
   55  H 15  S    0.000085  -0.001088   0.000005  -0.000048   0.002383
   56  H 16  S   -0.000178  -0.000019  -0.000094  -0.000002  -0.006634
   57  H 17  S   -0.000020  -0.000055   0.000086  -0.000084   0.000075
   58  H 18  S   -0.000015  -0.000024  -0.006942  -0.000096  -0.000141
   59  H 19  S   -0.000022  -0.000038   0.000207  -0.006826  -0.000109
   60  H 20  S   -0.000191   0.000013  -0.000034   0.000010  -0.000063

                      6          7          8          9         10
                  -11.0460   -11.0458   -11.0267   -11.0150   -11.0080
                     A          A          A          A          A   
    1  C  1  S   -0.200648   0.971271  -0.000211   0.000876  -0.002490
    2  C  1  S   -0.007222   0.035457   0.000043   0.000284  -0.007132
    3  C  1  X    0.000257  -0.001500   0.000018  -0.000045   0.003314
    4  C  1  Y   -0.000180   0.000270   0.000026   0.000051  -0.000341
    5  C  1  Z   -0.000013  -0.000420  -0.000040  -0.000072  -0.003228
    6  C  2  S    0.002290   0.003837   0.000073  -0.016894   0.991973
    7  C  2  S   -0.004899  -0.007963   0.000026  -0.001097   0.036619
    8  C  2  X    0.000664  -0.003199   0.000007  -0.000575   0.002353
    9  C  2  Y   -0.003259  -0.000290  -0.000003   0.000125  -0.000042
   10  C  2  Z   -0.003322   0.002481   0.000006  -0.000392   0.001313
   11  C  3  S    0.919669   0.191604  -0.000272   0.000796  -0.002568
   12  C  3  S    0.032648   0.006929   0.000091   0.000295  -0.007150
   13  C  3  X   -0.001655  -0.000469  -0.000014  -0.000054  -0.000027
   14  C  3  Y   -0.000043  -0.000019   0.000083   0.000031   0.003575
   15  C  3  Z   -0.001496  -0.000230   0.000003  -0.000031   0.002960
   16  C  4  S    0.314359   0.060199   0.001348  -0.003259   0.000512
   17  C  4  S    0.008612   0.001623   0.000232  -0.007194   0.000038
   18  C  4  X    0.002667   0.000563   0.000024  -0.002106  -0.000025
   19  C  4  Y   -0.000335  -0.000081   0.000015   0.003711   0.000135
   20  C  4  Z    0.001439   0.000355   0.000066   0.001732   0.000090
   21  C  5  S    0.000765  -0.000593  -0.002720   0.991966   0.017127
   22  C  5  S   -0.002065  -0.000479  -0.000213   0.036580   0.000147
   23  C  5  X    0.000615   0.000096  -0.000075  -0.002020   0.000552
   24  C  5  Y   -0.001072  -0.000200  -0.000202   0.000695   0.000037
   25  C  5  Z   -0.000553  -0.000089   0.000068  -0.001467   0.000280
   26  C  6  S   -0.003419   0.027024   0.000634  -0.002283   0.000391
   27  C  6  S    0.000493  -0.001984   0.000394  -0.007128   0.000042
   28  C  6  X   -0.000385   0.002394   0.000124   0.001248   0.000085
   29  C  6  Y   -0.000109  -0.000044   0.000074   0.000238  -0.000022
   30  C  6  Z   -0.000292   0.001355  -0.000083  -0.004418  -0.000130
   31  C  7  S    0.000704   0.005544  -0.019608   0.001154  -0.000068
   32  C  7  S    0.000014   0.000180  -0.008948   0.000136   0.000008
   33  C  7  X    0.000042  -0.000004   0.000606  -0.000021  -0.000042
   34  C  7  Y   -0.000011   0.000026  -0.003939  -0.000035   0.000024
   35  C  7  Z   -0.000026  -0.000074  -0.002509  -0.000185  -0.000001
   36  C  8  S   -0.000201   0.000256   0.991965   0.002811  -0.000032
   37  C  8  S    0.000063   0.000027   0.036555   0.000039  -0.000015
   38  C  8  X   -0.000029  -0.000021   0.000219   0.000011  -0.000002
   39  C  8  Y    0.000022   0.000005  -0.001698   0.000171   0.000004
   40  C  8  Z    0.000003  -0.000014  -0.000866  -0.000110  -0.000001
   41  C  9  S    0.001093   0.000195   0.001995   0.000354  -0.000008
   42  C  9  S   -0.001651  -0.000301  -0.005871   0.000110  -0.000015
   43  C  9  X    0.000464   0.000082  -0.002294  -0.000144  -0.000011
   44  C  9  Y    0.001144   0.000215   0.000021   0.000092   0.000003
   45  C  9  Z   -0.000337  -0.000065   0.003505   0.000045  -0.000052
   46  O 10  S   -0.000014  -0.000002  -0.000022   0.000008  -0.000000
   47  O 10  S    0.000105   0.000017   0.000248  -0.000084   0.000007
   48  O 10  X   -0.000049  -0.000012   0.000119   0.000026   0.000007
   49  O 10  Y   -0.000082  -0.000012  -0.000014   0.000036  -0.000005
   50  O 10  Z    0.000003  -0.000000  -0.000188   0.000026   0.000000
   51  H 11  S    0.001385  -0.006824  -0.000093  -0.000065  -0.000011
   52  H 12  S    0.001295  -0.006813  -0.000010  -0.000030   0.000098
   53  H 13  S    0.000034   0.000064  -0.000004   0.000130  -0.007015
   54  H 14  S   -0.006353  -0.001437  -0.000019  -0.000042   0.000096
   55  H 15  S   -0.006404  -0.001379  -0.000219  -0.000047  -0.000003
   56  H 16  S   -0.002061  -0.000413  -0.000098   0.000108  -0.000034
   57  H 17  S    0.000028   0.000006  -0.000042  -0.006928  -0.000106
   58  H 18  S   -0.000069  -0.000066  -0.000092   0.000097  -0.000047
   59  H 19  S   -0.000034   0.000003   0.000270  -0.000106  -0.000002
   60  H 20  S   -0.000024  -0.000008  -0.006866  -0.000079   0.000001

                     11         12         13         14         15
                   -1.3155    -1.0943    -1.0174    -0.9712    -0.9379
                     A          A          A          A          A   
    1  C  1  S   -0.000756  -0.059792  -0.097204   0.080179  -0.074555
    2  C  1  S    0.001831   0.158782   0.262363  -0.221584   0.213974
    3  C  1  X    0.000093  -0.001844  -0.063877   0.034680   0.031277
    4  C  1  Y    0.000260   0.008696   0.008829  -0.010693  -0.009754
    5  C  1  Z    0.000492   0.029036   0.044932  -0.012034  -0.003693
    6  C  2  S   -0.001090  -0.059954  -0.141189   0.073248   0.017155
    7  C  2  S    0.002398   0.149295   0.366194  -0.194309  -0.046120
    8  C  2  X    0.000601   0.032276   0.048735  -0.031377   0.037092
    9  C  2  Y    0.000690   0.015592   0.035455  -0.001790  -0.051092
   10  C  2  Z    0.000638   0.004993   0.013355   0.025886  -0.071579
   11  C  3  S   -0.003421  -0.054250  -0.113337   0.017269   0.095707
   12  C  3  S    0.008302   0.143964   0.306967  -0.043914  -0.271862
   13  C  3  X    0.002544   0.017759  -0.002282   0.024892  -0.001930
   14  C  3  Y    0.001214  -0.019983  -0.051647   0.024872  -0.004234
   15  C  3  Z    0.000761  -0.014474  -0.051621   0.047665  -0.003346
   16  C  4  S   -0.021302  -0.088122  -0.014265  -0.130114   0.075466
   17  C  4  S    0.053389   0.231618   0.041449   0.361140  -0.217561
   18  C  4  X    0.011271   0.030188  -0.033320   0.047588   0.012625
   19  C  4  Y    0.023868  -0.026604  -0.008753  -0.053827  -0.058994
   20  C  4  Z   -0.005526  -0.038096  -0.003158  -0.010165  -0.000691
   21  C  5  S   -0.005510  -0.106522   0.005208  -0.125181  -0.055117
   22  C  5  S    0.012541   0.267441  -0.013590   0.334621   0.150098
   23  C  5  X   -0.001766  -0.015115  -0.022368  -0.042674   0.038484
   24  C  5  Y    0.005543   0.046057  -0.004089   0.054470  -0.050030
   25  C  5  Z    0.000441  -0.044946   0.014845   0.020151  -0.099767
   26  C  6  S   -0.003185  -0.112357   0.030824  -0.014429  -0.131476
   27  C  6  S    0.007596   0.296680  -0.082975   0.035691   0.373977
   28  C  6  X   -0.000087  -0.006756  -0.042137  -0.022107  -0.003258
   29  C  6  Y    0.002262   0.038572  -0.040495  -0.039880  -0.024925
   30  C  6  Z    0.001759   0.039255  -0.003052   0.096528   0.018798
   31  C  7  S   -0.005954  -0.101256   0.101133   0.099185  -0.000321
   32  C  7  S    0.014149   0.257806  -0.266174  -0.267060   0.004662
   33  C  7  X   -0.001927  -0.031303   0.008970   0.002693  -0.016113
   34  C  7  Y    0.004513   0.001205  -0.047128  -0.067883  -0.129212
   35  C  7  Z    0.004660   0.044406  -0.041818  -0.015796  -0.027937
   36  C  8  S   -0.021555  -0.079543   0.099515   0.095187   0.091781
   37  C  8  S    0.052420   0.199600  -0.258330  -0.252500  -0.248510
   38  C  8  X   -0.015235  -0.007444  -0.004619  -0.017314   0.017665
   39  C  8  Y   -0.000858  -0.060059   0.059275   0.046546   0.008361
   40  C  8  Z    0.022923  -0.014073   0.025338   0.051613  -0.020467
   41  C  9  S   -0.127527  -0.035239   0.023030  -0.013454   0.067227
   42  C  9  S    0.295208   0.097806  -0.066227   0.038147  -0.198396
   43  C  9  X   -0.021411   0.008513  -0.038129  -0.049959  -0.009619
   44  C  9  Y    0.124959  -0.075306   0.014051  -0.075558   0.092714
   45  C  9  Z    0.087111  -0.049886   0.053010   0.051034   0.072730
   46  O 10  S   -0.214565   0.037889  -0.015667   0.010110  -0.047851
   47  O 10  S    0.749548  -0.141356   0.060116  -0.039624   0.191030
   48  O 10  X    0.021697  -0.001831  -0.008162  -0.012836   0.000242
   49  O 10  Y   -0.135121   0.004833  -0.003478  -0.016834   0.018472
   50  O 10  Z   -0.094894   0.004484   0.006835   0.015305   0.014069
   51  H 11  S    0.000434   0.038724   0.056035  -0.065729   0.062398
   52  H 12  S    0.000194   0.030072   0.057132  -0.056171   0.068437
   53  H 13  S    0.000317   0.029482   0.083916  -0.047174  -0.011491
   54  H 14  S    0.001358   0.026505   0.067949  -0.005373  -0.080715
   55  H 15  S    0.003555   0.033578   0.070855  -0.010568  -0.085023
   56  H 16  S    0.008757   0.040206   0.014604   0.093315  -0.063521
   57  H 17  S    0.001499   0.049774   0.001792   0.086019   0.045338
   58  H 18  S    0.000807   0.055401  -0.016424   0.003981   0.117757
   59  H 19  S    0.001597   0.048257  -0.060385  -0.074618   0.007668
   60  H 20  S    0.008698   0.034037  -0.057384  -0.068553  -0.068008

                     16         17         18         19         20
                   -0.8528    -0.7758    -0.7541    -0.7087    -0.6569
                     A          A          A          A          A   
    1  C  1  S   -0.130128   0.038300  -0.006707   0.067448   0.005554
    2  C  1  S    0.378996  -0.119078   0.025540  -0.216390  -0.016765
    3  C  1  X   -0.042513  -0.062792   0.069224  -0.097588   0.021757
    4  C  1  Y   -0.014778  -0.025182   0.004717  -0.040975  -0.147004
    5  C  1  Z   -0.038976   0.079884  -0.028483   0.161152  -0.034060
    6  C  2  S   -0.001249  -0.060881   0.046740  -0.113923  -0.006810
    7  C  2  S    0.003527   0.181729  -0.141510   0.352220   0.024249
    8  C  2  X    0.078051  -0.020887   0.006020  -0.047086  -0.068642
    9  C  2  Y   -0.091748  -0.027690   0.052348  -0.125496  -0.118867
   10  C  2  Z   -0.145338   0.031147   0.002354   0.054015   0.042895
   11  C  3  S    0.129192   0.014832  -0.038389   0.066097   0.002731
   12  C  3  S   -0.376307  -0.050292   0.118690  -0.212442  -0.007781
   13  C  3  X    0.055438  -0.024536  -0.006097   0.018189  -0.069560
   14  C  3  Y   -0.005110  -0.080534   0.092079  -0.173912  -0.036109
   15  C  3  Z    0.006609  -0.056796   0.004863  -0.064863   0.117214
   16  C  4  S   -0.062798   0.079640   0.045082  -0.015121  -0.028327
   17  C  4  S    0.182731  -0.247580  -0.133445   0.048711   0.097464
   18  C  4  X    0.064504   0.040686   0.005432   0.060155  -0.097954
   19  C  4  Y    0.030990  -0.119938   0.175200   0.115670   0.038197
   20  C  4  Z    0.019553  -0.076101  -0.074886  -0.000912   0.201370
   21  C  5  S    0.006467  -0.098100   0.054278   0.048529   0.027106
   22  C  5  S   -0.018632   0.291435  -0.164903  -0.148963  -0.082674
   23  C  5  X   -0.037324   0.010002   0.080530   0.053475   0.006078
   24  C  5  Y    0.047184  -0.088571  -0.009034   0.078412  -0.142553
   25  C  5  Z    0.072912  -0.040444  -0.147710  -0.046240   0.064571
   26  C  6  S    0.072488   0.009500  -0.083707  -0.031680  -0.033424
   27  C  6  S   -0.211203  -0.034353   0.259025   0.099263   0.112005
   28  C  6  X   -0.067354  -0.061668   0.015457   0.075905   0.097754
   29  C  6  Y   -0.010087  -0.083146  -0.063866   0.052334  -0.238297
   30  C  6  Z   -0.013797   0.169574  -0.015793  -0.023523  -0.138043
   31  C  7  S    0.055341   0.076690   0.085747  -0.021690   0.025875
   32  C  7  S   -0.161050  -0.233631  -0.254361   0.069415  -0.079224
   33  C  7  X   -0.009330  -0.008298  -0.079295  -0.006577   0.103881
   34  C  7  Y    0.067573   0.108712  -0.124336  -0.109226  -0.013144
   35  C  7  Z    0.018508   0.088592   0.070538   0.019168  -0.123403
   36  C  8  S   -0.038561  -0.086304  -0.005598   0.042311  -0.032392
   37  C  8  S    0.111439   0.256098   0.028469  -0.127781   0.113665
   38  C  8  X   -0.033125  -0.001441  -0.115832  -0.044045   0.074997
   39  C  8  Y    0.032779   0.094953   0.073753  -0.078994   0.207343
   40  C  8  Z    0.061259   0.056173   0.195442   0.070715  -0.001405
   41  C  9  S   -0.065261   0.002655  -0.105854  -0.054141  -0.013873
   42  C  9  S    0.199471  -0.008869   0.338978   0.176482   0.044220
   43  C  9  X    0.020783   0.128719   0.035031  -0.017893   0.011946
   44  C  9  Y   -0.082761   0.110288  -0.046341  -0.096313   0.048910
   45  C  9  Z   -0.043579  -0.126741  -0.119912   0.038432   0.030134
   46  O 10  S    0.037838  -0.003275   0.058202   0.024419   0.028801
   47  O 10  S   -0.157353   0.014498  -0.255831  -0.109868  -0.137699
   48  O 10  X    0.010000   0.063588   0.025541  -0.006957   0.023216
   49  O 10  Y   -0.033686   0.059264  -0.068447  -0.083475  -0.064784
   50  O 10  Z   -0.018530  -0.061204  -0.093814   0.005305  -0.048066
   51  H 11  S    0.120694  -0.096643   0.026140  -0.177680  -0.081199
   52  H 12  S    0.141844  -0.057291   0.018799  -0.120708   0.100732
   53  H 13  S    0.001053   0.092547  -0.082332   0.232622   0.113173
   54  H 14  S   -0.140828  -0.033674   0.046983  -0.121409   0.095294
   55  H 15  S   -0.117782  -0.053223   0.103414  -0.168119  -0.070798
   56  H 16  S    0.055507  -0.135690  -0.101651  -0.001633   0.195211
   57  H 17  S   -0.009158   0.145640  -0.103342  -0.121311   0.072765
   58  H 18  S   -0.078007  -0.030859   0.137710   0.037893   0.258229
   59  H 19  S   -0.065389  -0.135380  -0.160712   0.015183   0.077885
   60  H 20  S    0.036217   0.135705  -0.013975  -0.121236   0.192895

                     21         22         23         24         25
                   -0.6044    -0.5931    -0.5874    -0.5544    -0.5396
                     A          A          A          A          A   
    1  C  1  S   -0.014342  -0.009300  -0.000335   0.000461   0.005143
    2  C  1  S    0.051355   0.027020  -0.003415  -0.001116  -0.025366
    3  C  1  X    0.047866  -0.040975  -0.105813   0.034095  -0.141534
    4  C  1  Y   -0.229570  -0.120904  -0.078617   0.241857  -0.165594
    5  C  1  Z   -0.126341  -0.116503   0.122111  -0.056990   0.119780
    6  C  2  S    0.025567   0.007275  -0.006312  -0.015832  -0.008135
    7  C  2  S   -0.079320  -0.020368   0.019567   0.052398   0.026685
    8  C  2  X   -0.116423  -0.094996   0.092660  -0.047970   0.085230
    9  C  2  Y   -0.192100  -0.092996  -0.018595   0.128508  -0.061674
   10  C  2  Z    0.048656  -0.032947  -0.117935   0.041891  -0.155287
   11  C  3  S   -0.012194  -0.010652   0.006177   0.004929   0.001786
   12  C  3  S    0.044386   0.034176  -0.017654  -0.026096  -0.001953
   13  C  3  X   -0.153112  -0.104600   0.104783  -0.087451   0.119442
   14  C  3  Y    0.001443   0.102819   0.160770  -0.138926   0.234938
   15  C  3  Z    0.240252   0.052645  -0.073020  -0.040871  -0.093345
   16  C  4  S   -0.003292   0.055948   0.007928   0.020212  -0.010097
   17  C  4  S    0.008550  -0.189973  -0.022711  -0.070437   0.034366
   18  C  4  X   -0.011879   0.091930  -0.040545  -0.062136  -0.060161
   19  C  4  Y   -0.011467   0.088526   0.234148   0.065694  -0.098172
   20  C  4  Z    0.002609  -0.082814   0.015017   0.259583   0.094435
   21  C  5  S    0.011585  -0.056423   0.003907   0.010005   0.017204
   22  C  5  S   -0.041121   0.192159  -0.011966  -0.028355  -0.056212
   23  C  5  X    0.025387   0.044985   0.092432   0.069343  -0.042368
   24  C  5  Y    0.092307  -0.199334  -0.132278  -0.252557  -0.070475
   25  C  5  Z   -0.076528   0.087463  -0.156593   0.103677   0.183005
   26  C  6  S   -0.009898   0.054736  -0.011213  -0.001549   0.007198
   27  C  6  S    0.032799  -0.191857   0.034547   0.007341  -0.021439
   28  C  6  X   -0.031425   0.023618  -0.044946   0.072898   0.132067
   29  C  6  Y    0.059510   0.003769  -0.174313  -0.031305  -0.017806
   30  C  6  Z    0.069375   0.061231   0.148608  -0.054639  -0.161142
   31  C  7  S    0.003688  -0.045458   0.009938  -0.006529  -0.018366
   32  C  7  S   -0.024346   0.151366  -0.052169   0.011448   0.061753
   33  C  7  X   -0.108741   0.099623   0.029272  -0.133203  -0.039578
   34  C  7  Y    0.081103   0.020053   0.241884   0.082431  -0.063355
   35  C  7  Z    0.236954  -0.113938   0.092269   0.232321   0.086190
   36  C  8  S   -0.020898   0.045759  -0.022472  -0.020217  -0.004384
   37  C  8  S    0.055371  -0.151599   0.062459   0.058482   0.013165
   38  C  8  X    0.000323  -0.072348   0.111251  -0.049466  -0.122625
   39  C  8  Y   -0.172298  -0.153530  -0.089051  -0.234779  -0.140238
   40  C  8  Z   -0.036505   0.063640  -0.208128   0.000999   0.127790
   41  C  9  S    0.042812  -0.080180   0.012343  -0.009092   0.022760
   42  C  9  S   -0.146957   0.279839  -0.039797   0.029267  -0.077334
   43  C  9  X    0.013060  -0.025345  -0.218558   0.046188   0.099037
   44  C  9  Y   -0.066856   0.005083  -0.150214  -0.000480   0.028591
   45  C  9  Z   -0.013431   0.038633   0.169567   0.052922  -0.232495
   46  O 10  S   -0.041043   0.049812  -0.005355   0.009103  -0.034295
   47  O 10  S    0.202033  -0.245431   0.026161  -0.046550   0.178368
   48  O 10  X   -0.032168   0.006306  -0.199956   0.009277   0.057934
   49  O 10  Y    0.120048  -0.212375  -0.124410  -0.090194   0.294371
   50  O 10  Z    0.125749  -0.112486   0.180891   0.040956  -0.037675
   51  H 11  S   -0.071946  -0.018386  -0.130204   0.198068  -0.208060
   52  H 12  S    0.228569   0.143397  -0.000699  -0.148350   0.056407
   53  H 13  S    0.140126   0.081062  -0.039011  -0.035050  -0.012458
   54  H 14  S    0.238594   0.098299  -0.109432   0.022763  -0.131344
   55  H 15  S   -0.077751   0.066904   0.151179  -0.117917   0.235407
   56  H 16  S    0.019388  -0.176612   0.001072   0.190847   0.112316
   57  H 17  S   -0.107583   0.259207   0.024436   0.208445   0.101278
   58  H 18  S   -0.051623  -0.096160   0.063738   0.063453   0.112441
   59  H 19  S   -0.212460   0.194903  -0.074856  -0.223250  -0.051564
   60  H 20  S   -0.075950  -0.217899   0.049122  -0.160316  -0.169693

                     26         27         28         29         30
                   -0.5170    -0.5079    -0.4880    -0.4776    -0.4470
                     A          A          A          A          A   
    1  C  1  S    0.009318   0.009040  -0.008104  -0.029636   0.009781
    2  C  1  S   -0.036825  -0.019978   0.031984   0.103538  -0.036555
    3  C  1  X    0.019218   0.225264   0.025395  -0.144505   0.053696
    4  C  1  Y    0.017882  -0.048798  -0.267552   0.073426  -0.089868
    5  C  1  Z   -0.217834   0.009467   0.006129   0.233692  -0.194876
    6  C  2  S   -0.013600   0.015961   0.008843   0.005981  -0.003191
    7  C  2  S    0.048239  -0.057043  -0.037326  -0.026278   0.011720
    8  C  2  X   -0.159748   0.035965   0.114674   0.239284  -0.109350
    9  C  2  Y    0.130237  -0.011236   0.269425   0.053654   0.110257
   10  C  2  Z    0.072267   0.244377   0.101314  -0.161972   0.139456
   11  C  3  S   -0.009418  -0.000533  -0.032607  -0.001514  -0.005691
   12  C  3  S    0.023555   0.009706   0.113518   0.009960   0.018343
   13  C  3  X   -0.058300   0.173647   0.044243  -0.111850   0.085342
   14  C  3  Y   -0.056282  -0.200140  -0.207210  -0.110019  -0.094512
   15  C  3  Z   -0.186577   0.027937  -0.144048   0.265791  -0.175506
   16  C  4  S   -0.009651  -0.008690  -0.001912   0.001195   0.000425
   17  C  4  S    0.027095   0.042906   0.006915   0.002779   0.006566
   18  C  4  X    0.253562  -0.136970   0.020809  -0.024450  -0.160379
   19  C  4  Y    0.050333   0.038902  -0.137492   0.098471   0.161218
   20  C  4  Z   -0.112491  -0.201441  -0.006834  -0.017021   0.220352
   21  C  5  S   -0.010417   0.020069   0.006979   0.006903  -0.001640
   22  C  5  S    0.038540  -0.070444  -0.027087  -0.024170   0.005108
   23  C  5  X    0.075421  -0.203654  -0.053932   0.025168   0.176996
   24  C  5  Y    0.075240  -0.130251   0.109077  -0.060898  -0.115125
   25  C  5  Z    0.138772   0.018860   0.013830  -0.101319  -0.291920
   26  C  6  S    0.019106   0.011953   0.005474   0.010886  -0.004893
   27  C  6  S   -0.074945  -0.033728  -0.016982  -0.042293   0.006417
   28  C  6  X    0.175681  -0.165305  -0.010501  -0.060025  -0.072074
   29  C  6  Y   -0.179364  -0.145686  -0.103871  -0.143241   0.045344
   30  C  6  Z   -0.071313  -0.168305  -0.023419   0.083666   0.328046
   31  C  7  S    0.021615   0.001880  -0.011261   0.004075  -0.002232
   32  C  7  S   -0.078970  -0.013354   0.026635  -0.016029   0.015120
   33  C  7  X    0.121523  -0.093116   0.080212   0.160685   0.107826
   34  C  7  Y    0.025171   0.152029   0.128155   0.069906  -0.015457
   35  C  7  Z   -0.026323  -0.106600   0.105098  -0.119171  -0.104003
   36  C  8  S   -0.009484  -0.005616   0.001263   0.004310   0.011396
   37  C  8  S    0.035754   0.014571  -0.016034  -0.015936  -0.039805
   38  C  8  X    0.061003  -0.179253   0.098756  -0.024006  -0.054063
   39  C  8  Y   -0.001892  -0.092455  -0.174424  -0.071791   0.022909
   40  C  8  Z    0.058605  -0.067239  -0.009782   0.139170   0.111962
   41  C  9  S    0.007871  -0.011113  -0.009334  -0.015196   0.000791
   42  C  9  S   -0.020154   0.045286   0.028124   0.061113  -0.000912
   43  C  9  X    0.090940  -0.189243   0.151179   0.155471   0.043855
   44  C  9  Y   -0.308916  -0.044743   0.128473  -0.161701  -0.014320
   45  C  9  Z   -0.009334  -0.188955   0.171717  -0.094872  -0.159790
   46  O 10  S   -0.051711  -0.017246   0.031196  -0.026262  -0.013447
   47  O 10  S    0.276049   0.093059  -0.171580   0.146761   0.078005
   48  O 10  X   -0.019571  -0.185291   0.207422   0.108316   0.058372
   49  O 10  Y    0.201037   0.130828  -0.225688   0.208308   0.254886
   50  O 10  Z    0.332171  -0.026793  -0.106418   0.129227  -0.063104
   51  H 11  S    0.096900   0.005502  -0.214797  -0.053656   0.021211
   52  H 12  S    0.085354   0.033301   0.240193  -0.138433   0.170248
   53  H 13  S    0.009415   0.031958  -0.264848  -0.215009   0.003406
   54  H 14  S   -0.082198  -0.092487  -0.073496   0.275950  -0.179042
   55  H 15  S    0.014245  -0.118814  -0.095340  -0.227871   0.010451
   56  H 16  S   -0.163337  -0.119262  -0.008732  -0.003914   0.260563
   57  H 17  S    0.005218   0.104259  -0.100161  -0.008285  -0.046504
   58  H 18  S    0.201837   0.092815   0.084743   0.027353  -0.202989
   59  H 19  S    0.044964   0.033354  -0.029190   0.181773   0.168512
   60  H 20  S    0.026991  -0.118655  -0.113319  -0.116699  -0.056127

                     31         32         33         34         35
                   -0.4434    -0.4185    -0.3647    -0.3155    -0.2824
                     A          A          A          A          A   
    1  C  1  S   -0.008528   0.002737  -0.002588  -0.000069  -0.027065
    2  C  1  S    0.036444   0.004707  -0.005951   0.000917   0.128638
    3  C  1  X    0.018127   0.249282  -0.081689  -0.005198   0.292132
    4  C  1  Y   -0.194755   0.032693   0.097317  -0.026015   0.003053
    5  C  1  Z    0.089071   0.095909  -0.144916   0.024474   0.203680
    6  C  2  S    0.003258   0.020123   0.012902  -0.004043   0.006617
    7  C  2  S   -0.017020  -0.071301  -0.049083   0.013479  -0.027405
    8  C  2  X    0.118484   0.002952   0.082132   0.014900   0.032785
    9  C  2  Y    0.126047  -0.195472  -0.113129   0.018778  -0.014098
   10  C  2  Z    0.049766   0.138754   0.055191  -0.000219   0.116689
   11  C  3  S   -0.016421  -0.003709  -0.013769  -0.002325   0.012556
   12  C  3  S    0.058401   0.014476   0.076268   0.010720  -0.070018
   13  C  3  X    0.001747   0.117248   0.324745  -0.007322  -0.195435
   14  C  3  Y   -0.133182   0.166973  -0.062636  -0.029386   0.063192
   15  C  3  Z   -0.020820  -0.017989   0.180296   0.012369  -0.106220
   16  C  4  S    0.025356   0.008798  -0.017283  -0.030996   0.008919
   17  C  4  S   -0.092518  -0.029834   0.092267   0.141383  -0.051207
   18  C  4  X   -0.015691  -0.037676  -0.270702   0.135218   0.232401
   19  C  4  Y    0.143170   0.032278   0.048654   0.296951   0.056998
   20  C  4  Z    0.016835   0.019885  -0.229465  -0.077782   0.134923
   21  C  5  S    0.005244   0.016576   0.012164   0.006351   0.003719
   22  C  5  S   -0.011121  -0.061849  -0.043275  -0.019895  -0.011216
   23  C  5  X    0.000391  -0.121310  -0.035590   0.115045  -0.006372
   24  C  5  Y   -0.208420  -0.092960  -0.090436  -0.077889   0.019545
   25  C  5  Z    0.104267  -0.062235  -0.007438   0.069851   0.076936
   26  C  6  S   -0.003087  -0.007895   0.018742  -0.001576  -0.005783
   27  C  6  S    0.022575   0.042335  -0.082601   0.009816   0.047569
   28  C  6  X   -0.005101  -0.255021   0.246944   0.037253  -0.229085
   29  C  6  Y    0.322761  -0.000442   0.042252   0.065147   0.006405
   30  C  6  Z   -0.109310  -0.074251   0.046536  -0.062995  -0.108616
   31  C  7  S   -0.011242   0.004107  -0.010049  -0.011982   0.005122
   32  C  7  S    0.058253  -0.013300   0.039799   0.043419  -0.020653
   33  C  7  X   -0.106441  -0.001165   0.283255  -0.173308   0.323087
   34  C  7  Y   -0.313973   0.037483  -0.141423   0.040705  -0.026283
   35  C  7  Z    0.037577  -0.045161   0.266944   0.002721   0.184448
   36  C  8  S   -0.004210  -0.000249   0.005899   0.036784   0.007050
   37  C  8  S    0.033598   0.000512  -0.024561  -0.164186  -0.034035
   38  C  8  X    0.025049   0.071074   0.331028   0.058081   0.376503
   39  C  8  Y    0.197303  -0.036913  -0.061524   0.052563  -0.101197
   40  C  8  Z    0.078266   0.073348   0.151660  -0.323170   0.180995
   41  C  9  S   -0.003416  -0.002244   0.008101   0.000924  -0.008857
   42  C  9  S    0.014516   0.011812  -0.029901  -0.001871   0.037466
   43  C  9  X   -0.016179   0.362364  -0.015136  -0.070176  -0.147613
   44  C  9  Y   -0.168182  -0.121337   0.020457  -0.113196  -0.019089
   45  C  9  Z    0.047703   0.200556   0.034344   0.144486  -0.066121
   46  O 10  S   -0.011981  -0.002950   0.001019  -0.000346   0.000145
   47  O 10  S    0.070126   0.017802  -0.008534   0.001786   0.001871
   48  O 10  X   -0.136593   0.396882   0.060003   0.504909  -0.240215
   49  O 10  Y   -0.049388  -0.075211   0.027053   0.392554   0.192314
   50  O 10  Z    0.297333   0.275437  -0.078447  -0.440295  -0.286230
   51  H 11  S   -0.194802   0.047813   0.132762  -0.032529  -0.025232
   52  H 12  S    0.138071  -0.084678  -0.003623   0.013355  -0.075772
   53  H 13  S   -0.164199   0.189571   0.063708  -0.023047   0.028255
   54  H 14  S    0.016337  -0.094156  -0.079802   0.020313   0.044746
   55  H 15  S   -0.094641   0.175734  -0.049647  -0.048368   0.062112
   56  H 16  S   -0.032458   0.015233  -0.118627  -0.109623   0.033553
   57  H 17  S    0.242395   0.044807   0.078776   0.112478   0.018990
   58  H 18  S   -0.221822  -0.075062   0.019728  -0.008981  -0.083336
   59  H 19  S   -0.069746   0.032964  -0.066827  -0.115217   0.004251
   60  H 20  S    0.189539  -0.025417   0.040844   0.120352   0.004817

                     36         37         38         39         40
                   -0.2114     0.1941     0.2213     0.3783     0.3917
                     A          A          A          A          A   
    1  C  1  S   -0.028069  -0.011024  -0.038343   0.030041  -0.039699
    2  C  1  S    0.104038   0.079977   0.188909  -0.130638   0.202121
    3  C  1  X    0.164165   0.219309   0.261923  -0.266732   0.377960
    4  C  1  Y   -0.006174  -0.018798  -0.002445   0.081040  -0.022616
    5  C  1  Z    0.134323   0.089063   0.170915  -0.285333   0.204656
    6  C  2  S    0.024990  -0.022922  -0.003032  -0.002490  -0.005650
    7  C  2  S   -0.120326   0.127066   0.017338   0.018532   0.043495
    8  C  2  X    0.404726  -0.430081  -0.082424  -0.078837  -0.195047
    9  C  2  Y   -0.199384   0.163788   0.048975   0.022528   0.080325
   10  C  2  Z    0.338623  -0.345129  -0.008541  -0.080153  -0.155317
   11  C  3  S   -0.030849  -0.017660   0.032974  -0.051031  -0.008999
   12  C  3  S    0.117089   0.112562  -0.154928   0.244586   0.059395
   13  C  3  X    0.218005   0.236151  -0.204251   0.487153   0.055259
   14  C  3  Y   -0.047601   0.003578   0.031837  -0.130068   0.088332
   15  C  3  Z    0.110125   0.166606  -0.092783   0.299182   0.041909
   16  C  4  S    0.033835  -0.014872  -0.015675   0.053208  -0.023185
   17  C  4  S   -0.134187   0.094769   0.061120  -0.256029   0.134087
   18  C  4  X    0.172932  -0.241293  -0.133371   0.466977  -0.096296
   19  C  4  Y   -0.025618   0.048863   0.003800   0.016304  -0.048078
   20  C  4  Z    0.142135  -0.119299  -0.087854   0.302961  -0.053787
   21  C  5  S   -0.024937  -0.022704  -0.002364   0.007311   0.020401
   22  C  5  S    0.119016   0.126020   0.011697  -0.040772  -0.112295
   23  C  5  X    0.512009   0.568011   0.028627  -0.067237  -0.081797
   24  C  5  Y    0.125744   0.092836   0.035770   0.005287  -0.069765
   25  C  5  Z    0.203276   0.250176   0.076250   0.046009  -0.060212
   26  C  6  S    0.030972  -0.016833   0.010645  -0.056178   0.020830
   27  C  6  S   -0.123069   0.102665  -0.029619   0.287170  -0.087816
   28  C  6  X    0.224438  -0.231245   0.104754  -0.445612   0.285012
   29  C  6  Y   -0.017571   0.010433   0.003243  -0.023905  -0.017397
   30  C  6  Z    0.108553  -0.180987   0.040158  -0.183239   0.143747
   31  C  7  S    0.009331   0.017700   0.004961   0.000456  -0.000824
   32  C  7  S   -0.038583  -0.084960  -0.022770  -0.003604   0.007021
   33  C  7  X   -0.030487  -0.056140   0.464536   0.380644   0.265546
   34  C  7  Y    0.055751   0.119590  -0.083422  -0.088560  -0.064711
   35  C  7  Z   -0.053562  -0.088727   0.276971   0.234150   0.155653
   36  C  8  S   -0.004574  -0.008418  -0.001049  -0.002258  -0.002056
   37  C  8  S    0.020411   0.037503   0.004843   0.013244   0.011619
   38  C  8  X   -0.137599   0.150467  -0.312665  -0.286054  -0.438423
   39  C  8  Y    0.025803  -0.048751   0.084915   0.079975   0.122546
   40  C  8  Z   -0.048544   0.123703  -0.210382  -0.195527  -0.288382
   41  C  9  S    0.009393   0.019904  -0.001429  -0.001271   0.000227
   42  C  9  S   -0.040014  -0.095789   0.005358   0.009847  -0.000489
   43  C  9  X    0.032078   0.039386  -0.386015  -0.012534   0.528715
   44  C  9  Y    0.058403   0.109532   0.106734   0.014114  -0.151431
   45  C  9  Z   -0.024176  -0.056790  -0.254938  -0.005065   0.340268
   46  O 10  S   -0.000156  -0.002396  -0.000375   0.001606  -0.000477
   47  O 10  S   -0.001115   0.010687   0.002603  -0.010826   0.002584
   48  O 10  X   -0.063663  -0.014252   0.449534   0.008668  -0.377800
   49  O 10  Y   -0.053726  -0.064176  -0.130533   0.012291   0.104365
   50  O 10  Z    0.036952   0.041343   0.287183   0.014825  -0.242641
   51  H 11  S    0.077207  -0.150064  -0.028988  -0.083538  -0.045199
   52  H 12  S   -0.002693  -0.057163  -0.044855  -0.017265  -0.035023
   53  H 13  S    0.052564  -0.020218  -0.000703  -0.000234   0.013966
   54  H 14  S   -0.001658  -0.074822   0.025009  -0.009860  -0.038245
   55  H 15  S    0.070326  -0.142218  -0.009651   0.020684  -0.080129
   56  H 16  S    0.008042  -0.066709   0.021734  -0.007633  -0.093504
   57  H 17  S   -0.063386  -0.024059  -0.002773   0.003112   0.033348
   58  H 18  S    0.000887  -0.072424  -0.058849  -0.073164  -0.076620
   59  H 19  S    0.024629   0.034395   0.000907   0.003174  -0.017917
   60  H 20  S   -0.025950  -0.047886  -0.013313  -0.017671  -0.011204

                     41         42         43         44         45
                    0.5297     0.5709     0.5867     0.6195     0.6258
                     A          A          A          A          A   
    1  C  1  S   -0.013690  -0.023575   0.000826  -0.006207   0.036299
    2  C  1  S    0.054117   0.152623  -0.004503   0.041861  -0.227771
    3  C  1  X    0.443324  -0.079184   0.041640  -0.034476   0.036947
    4  C  1  Y   -0.033087  -0.249819   0.203513   0.085992   0.395385
    5  C  1  Z    0.234621  -0.054817  -0.063370  -0.006196   0.008937
    6  C  2  S   -0.034026  -0.020574   0.011702   0.002628   0.045140
    7  C  2  S    0.212433   0.127690  -0.073543  -0.018885  -0.285749
    8  C  2  X   -0.249891  -0.119232   0.094138  -0.039770   0.278501
    9  C  2  Y    0.152218  -0.212623   0.139305   0.011290   0.394562
   10  C  2  Z   -0.222568   0.068488  -0.043499   0.017294  -0.103901
   11  C  3  S   -0.014430  -0.012457   0.023733   0.027329   0.030290
   12  C  3  S    0.057844   0.081324  -0.152144  -0.170222  -0.189527
   13  C  3  X    0.425393  -0.170210   0.135448   0.008386   0.196559
   14  C  3  Y   -0.019110  -0.179009   0.030518  -0.144026   0.235000
   15  C  3  Z    0.291104   0.156928  -0.080057   0.059339  -0.276080
   16  C  4  S    0.046078   0.000970   0.048444   0.106420  -0.009765
   17  C  4  S   -0.242616   0.016753  -0.294640  -0.623064   0.071370
   18  C  4  X    0.435187  -0.191230   0.037665  -0.316932  -0.153699
   19  C  4  Y   -0.134562  -0.305199  -0.069380  -0.483002  -0.145541
   20  C  4  Z    0.267651   0.243180  -0.159831  -0.014755   0.140907
   21  C  5  S    0.010921  -0.045112   0.018493   0.004064  -0.051719
   22  C  5  S   -0.081762   0.282169  -0.118669  -0.028291   0.325454
   23  C  5  X   -0.349863  -0.005285  -0.020878   0.066564   0.027176
   24  C  5  Y   -0.087810  -0.299896   0.134378   0.036609  -0.288203
   25  C  5  Z   -0.114945   0.139065  -0.127090   0.184451   0.150410
   26  C  6  S    0.042589  -0.052124  -0.066793  -0.013311   0.007584
   27  C  6  S   -0.223902   0.328916   0.386621   0.074671  -0.030692
   28  C  6  X    0.396958   0.135298   0.260034  -0.106031  -0.074065
   29  C  6  Y   -0.061550  -0.300400   0.385688   0.187949  -0.337221
   30  C  6  Z    0.344867  -0.108589  -0.168022   0.098931  -0.031572
   31  C  7  S   -0.018251  -0.050755   0.024433   0.054546  -0.052285
   32  C  7  S    0.104998   0.307928  -0.132471  -0.363032   0.313329
   33  C  7  X   -0.269594   0.106266   0.281974  -0.094434  -0.026448
   34  C  7  Y   -0.013322  -0.048060   0.383835   0.083177  -0.201889
   35  C  7  Z   -0.112922  -0.253816  -0.380737   0.240903  -0.033185
   36  C  8  S    0.015555   0.013116   0.024468   0.107471   0.001482
   37  C  8  S   -0.091057  -0.055311  -0.126814  -0.662211  -0.003165
   38  C  8  X    0.203031   0.167811   0.361237  -0.030520  -0.054717
   39  C  8  Y   -0.076508   0.065199   0.191534  -0.363539  -0.039293
   40  C  8  Z    0.144942  -0.183989  -0.429956  -0.173915   0.053478
   41  C  9  S   -0.020652  -0.091776  -0.093770  -0.123879  -0.019412
   42  C  9  S    0.118875   0.540286   0.553752   0.727460   0.112014
   43  C  9  X   -0.285728  -0.036255   0.211875  -0.025979  -0.099825
   44  C  9  Y   -0.006206  -0.146141   0.026423  -0.464375  -0.109574
   45  C  9  Z   -0.123778  -0.018377  -0.314552  -0.028020   0.096181
   46  O 10  S    0.003506   0.018709   0.014192   0.006533   0.003863
   47  O 10  S   -0.021097  -0.116922  -0.084839  -0.025381  -0.025091
   48  O 10  X    0.142512  -0.001755  -0.075652   0.012095   0.024014
   49  O 10  Y    0.003456   0.152368   0.046935   0.085477   0.058079
   50  O 10  Z    0.083613   0.083550   0.134752  -0.041874  -0.012018
   51  H 11  S    0.000282   0.133349  -0.222897  -0.089736  -0.241496
   52  H 12  S    0.075112  -0.318520   0.158375   0.045310   0.459481
   53  H 13  S   -0.044217  -0.348179   0.224880  -0.008821   0.658633
   54  H 14  S    0.070611  -0.286657   0.231560   0.030470   0.443456
   55  H 15  S   -0.008917   0.229097  -0.026032   0.225591  -0.287441
   56  H 16  S    0.005868  -0.319481   0.335909   0.217350  -0.236607
   57  H 17  S   -0.040960  -0.514853   0.258480  -0.047153  -0.510996
   58  H 18  S    0.030543  -0.527776  -0.085614   0.194850  -0.235382
   59  H 19  S   -0.012205  -0.461567  -0.417987   0.427628  -0.171482
   60  H 20  S    0.089846  -0.137211  -0.388825   0.657603   0.088411

                     46         47         48         49         50
                    0.6607     0.6978     0.7140     0.7291     0.7432
                     A          A          A          A          A   
    1  C  1  S    0.026938  -0.102924  -0.055730   0.120624  -0.070400
    2  C  1  S   -0.166459   0.655557   0.347017  -0.770588   0.444538
    3  C  1  X    0.042305   0.042510  -0.151522   0.027231   0.149604
    4  C  1  Y   -0.297344  -0.176220   0.204747  -0.520638  -0.002024
    5  C  1  Z   -0.000564  -0.431681   0.097023   0.156056  -0.326871
    6  C  2  S   -0.008925   0.053939   0.077829  -0.012904  -0.012341
    7  C  2  S    0.052138  -0.328280  -0.483338   0.080658   0.104601
    8  C  2  X    0.008455   0.108297  -0.028984   0.148911   0.055165
    9  C  2  Y   -0.104891  -0.039968   0.069367  -0.163069  -0.054062
   10  C  2  Z   -0.116494  -0.096056   0.067346  -0.257767   0.024756
   11  C  3  S    0.002520  -0.062551  -0.127669  -0.091685  -0.073074
   12  C  3  S   -0.018291   0.388031   0.815547   0.589374   0.461085
   13  C  3  X    0.146238   0.075742  -0.329779   0.139473  -0.040234
   14  C  3  Y   -0.016953   0.098641   0.233165   0.369817   0.320164
   15  C  3  Z   -0.211814  -0.279021   0.181549  -0.368942   0.043582
   16  C  4  S    0.017255  -0.015892  -0.057365   0.025052   0.126613
   17  C  4  S   -0.116763   0.100143   0.372789  -0.139433  -0.789467
   18  C  4  X    0.253131   0.176458   0.101149  -0.109200  -0.122812
   19  C  4  Y   -0.046364  -0.139850  -0.044371  -0.045589   0.171566
   20  C  4  Z   -0.507381  -0.098414   0.167370   0.209753  -0.053735
   21  C  5  S    0.005897   0.044712   0.067055  -0.000150  -0.145018
   22  C  5  S   -0.043484  -0.279421  -0.433277   0.003957   0.923181
   23  C  5  X    0.210807  -0.020704   0.026493  -0.080453  -0.141329
   24  C  5  Y   -0.071747  -0.110331   0.003138   0.047443   0.068480
   25  C  5  Z   -0.236244  -0.049349   0.034772   0.175877  -0.071466
   26  C  6  S    0.070782  -0.090738   0.009011  -0.044847   0.116224
   27  C  6  S   -0.419003   0.573760  -0.049622   0.262862  -0.728653
   28  C  6  X   -0.134075   0.352104  -0.142145  -0.050088  -0.060940
   29  C  6  Y   -0.439673  -0.175366  -0.034284   0.212859   0.233165
   30  C  6  Z   -0.134767  -0.135398   0.290053   0.054945  -0.138050
   31  C  7  S   -0.111343   0.088473  -0.075170   0.042367  -0.027496
   32  C  7  S    0.682948  -0.576864   0.474907  -0.257753   0.168272
   33  C  7  X    0.032187  -0.128577  -0.027530   0.057537   0.048509
   34  C  7  Y   -0.269487   0.071099   0.090287   0.141716  -0.135369
   35  C  7  Z   -0.042904   0.024165   0.015554   0.091967  -0.109010
   36  C  8  S    0.091531  -0.030934   0.108515   0.006099  -0.032930
   37  C  8  S   -0.552602   0.181335  -0.696677  -0.043448   0.220939
   38  C  8  X   -0.026288  -0.019914   0.056721   0.054384  -0.032808
   39  C  8  Y   -0.152638  -0.249407  -0.012382   0.052037   0.067639
   40  C  8  Z   -0.082422   0.033055  -0.061225  -0.099714   0.029518
   41  C  9  S    0.002517   0.035221  -0.037000  -0.046854  -0.023041
   42  C  9  S   -0.027576  -0.224698   0.220156   0.283341   0.136879
   43  C  9  X    0.207071  -0.090836   0.174243  -0.050561  -0.153711
   44  C  9  Y   -0.000067  -0.107534   0.187092  -0.035799  -0.142521
   45  C  9  Z   -0.290404  -0.050677  -0.348322  -0.029000   0.195386
   46  O 10  S   -0.017169  -0.021041   0.005269   0.010529   0.008715
   47  O 10  S    0.122559   0.143932  -0.033193  -0.070497  -0.059245
   48  O 10  X   -0.041477   0.057434  -0.054150   0.001389   0.032712
[...]
   31  C  7  S    0.036803  -0.026192  -0.025563   0.082065  -0.016163
   32  C  7  S   -0.215788   0.157338   0.177254  -0.497324   0.121086
   33  C  7  X   -0.039811  -0.015977   0.305526   0.058751   0.096655
   34  C  7  Y    0.067122  -0.095593   0.197914   0.425451  -0.022916
   35  C  7  Z    0.126172   0.046972  -0.451059  -0.107617  -0.148087
   36  C  8  S   -0.048146   0.022218  -0.012517   0.040364  -0.093474
   37  C  8  S    0.268106  -0.131768   0.102915  -0.244218   0.573952
   38  C  8  X   -0.212125   0.026178   0.236345   0.194389  -0.086704
   39  C  8  Y    0.033324  -0.036116   0.292302   0.042440   0.281212
   40  C  8  Z    0.153190   0.007882  -0.391647  -0.283765   0.075552
   41  C  9  S    0.114250   0.047229  -0.052864  -0.079469   0.096752
   42  C  9  S   -0.659136  -0.283261   0.316938   0.473704  -0.565959
   43  C  9  X    0.150488   0.103628   0.270529   0.126554   0.063701
   44  C  9  Y    0.279467   0.091542   0.131577  -0.054873   0.312107
   45  C  9  Z    0.097047  -0.179571  -0.193819  -0.188859   0.111599
   46  O 10  S   -0.013265  -0.019991   0.013323   0.011656  -0.004370
   47  O 10  S    0.074832   0.132156  -0.086195  -0.068685   0.015196
   48  O 10  X   -0.058580  -0.017107  -0.109968  -0.040755  -0.030588
   49  O 10  Y   -0.109189  -0.191323   0.050680   0.056329  -0.043532
   50  O 10  Z   -0.065034  -0.055410   0.116647   0.078830   0.003129
   51  H 11  S   -0.206614   0.154034  -0.191039   0.159595   0.359772
   52  H 12  S    0.242020  -0.115258   0.220229  -0.203302  -0.431473
   53  H 13  S    0.232628   0.184648   0.262197  -0.196059  -0.562896
   54  H 14  S    0.200871   0.449737   0.184268  -0.090330  -0.240750
   55  H 15  S   -0.405746  -0.136267  -0.174852   0.143905  -0.036017
   56  H 16  S    0.160658   0.519047   0.077398   0.308036  -0.142571
   57  H 17  S    0.319235   0.294023  -0.054868   0.601762  -0.011944
   58  H 18  S    0.384340  -0.091534  -0.441097   0.356523  -0.103016
   59  H 19  S    0.268113  -0.043498  -0.655427   0.135965  -0.223951
   60  H 20  S   -0.095399   0.110795  -0.543089  -0.077023  -0.527305

                     46         47         48         49         50
                    0.6749     0.6872     0.6919     0.7025     0.7183
                     A          A          A          A          A   
    1  C  1  S   -0.000528  -0.027655   0.068723   0.188173   0.009673
    2  C  1  S    0.002062   0.157348  -0.454991  -1.207575  -0.074981
    3  C  1  X    0.112510   0.006774  -0.101842  -0.069515  -0.036803
    4  C  1  Y   -0.016409   0.070007  -0.268247  -0.001220   0.056244
    5  C  1  Z    0.064329   0.139953   0.058135   0.478071   0.221481
    6  C  2  S    0.022282   0.129679   0.026093  -0.068436   0.084139
    7  C  2  S   -0.136795  -0.816915  -0.151981   0.389453  -0.546530
    8  C  2  X   -0.238216   0.055693   0.005576  -0.006735   0.087425
    9  C  2  Y    0.095732   0.082138  -0.138834   0.043652   0.049657
   10  C  2  Z   -0.089227  -0.292781  -0.271333  -0.039525  -0.180203
   11  C  3  S   -0.088540  -0.042741  -0.021023   0.060320  -0.020034
   12  C  3  S    0.502497   0.244758   0.125880  -0.371220   0.121928
   13  C  3  X    0.838984  -0.011819   0.080972   0.093784  -0.266444
   14  C  3  Y   -0.117811  -0.374259   0.059754  -0.089788  -0.329596
   15  C  3  Z    0.277457  -0.241634  -0.611304   0.214893  -0.056812
   16  C  4  S    0.124208  -0.032181   0.093242  -0.030403  -0.034158
   17  C  4  S   -0.719960   0.204180  -0.556233   0.179969   0.212053
   18  C  4  X    0.673856  -0.027244  -0.468529   0.102775  -0.176294
   19  C  4  Y    0.038501  -0.087874   0.225967  -0.081079   0.073280
   20  C  4  Z    0.441934   0.305940  -0.046420   0.005081   0.120634
   21  C  5  S   -0.044618   0.039306  -0.133101   0.044089  -0.012916
   22  C  5  S    0.270994  -0.251222   0.832849  -0.273466   0.054996
   23  C  5  X   -0.200596  -0.089108  -0.207277   0.062965   0.122748
   24  C  5  Y   -0.054697   0.013518   0.026107  -0.005190   0.167769
   25  C  5  Z   -0.130744   0.025464   0.258758  -0.050850  -0.147568
   26  C  6  S    0.041784  -0.083935   0.024888  -0.024780   0.133395
   27  C  6  S   -0.257036   0.522394  -0.139773   0.150933  -0.855958
   28  C  6  X    0.067572   0.044595   0.053555   0.001288  -0.276072
   29  C  6  Y   -0.033020   0.131496   0.052372  -0.000842   0.098421
   30  C  6  Z    0.122815  -0.042701  -0.103331  -0.003052   0.227102
   31  C  7  S   -0.037679   0.102076   0.008742   0.022165  -0.135473
   32  C  7  S    0.234744  -0.628916  -0.059586  -0.133952   0.873785
   33  C  7  X   -0.073153  -0.066014   0.041870  -0.011420   0.140026
   34  C  7  Y   -0.076545   0.105949  -0.029161   0.020846  -0.140487
   35  C  7  Z   -0.009215   0.010043  -0.020852   0.014424  -0.091760
   36  C  8  S    0.012306  -0.118187  -0.010845  -0.022037   0.030673
   37  C  8  S   -0.077339   0.731421   0.074867   0.139371  -0.179880
   38  C  8  X    0.027053  -0.038161  -0.017345   0.003245  -0.066044
   39  C  8  Y    0.031295   0.146043  -0.046163   0.031930   0.288156
   40  C  8  Z    0.084933   0.117870  -0.011425   0.021955  -0.013851
   41  C  9  S   -0.014800   0.034739  -0.037302   0.019737  -0.020836
   42  C  9  S    0.093171  -0.204814   0.221915  -0.116461   0.132562
   43  C  9  X   -0.187022  -0.301299  -0.052159  -0.027765   0.068868
   44  C  9  Y    0.062436  -0.065161  -0.142132   0.010908   0.107599
   45  C  9  Z   -0.036352   0.298640   0.163259   0.026999   0.042085
   46  O 10  S    0.009114   0.001846   0.011494  -0.003948   0.015590
   47  O 10  S   -0.063143  -0.019669  -0.075703   0.025237  -0.108585
   48  O 10  X    0.066887   0.086861  -0.001353   0.012188  -0.041539
   49  O 10  Y    0.046203   0.074019   0.125382  -0.024417   0.097143
   50  O 10  Z    0.079209  -0.038988  -0.009032  -0.018840   0.086682
   51  H 11  S   -0.005491  -0.101078   0.503614   0.778205   0.071436
   52  H 12  S    0.036216   0.036033   0.035351   0.862475   0.185138
   53  H 13  S    0.097804   0.589901   0.060032  -0.190087   0.381077
   54  H 14  S    0.146702   0.020691   0.390966   0.097031  -0.213285
   55  H 15  S    0.016372   0.075658  -0.414925   0.309620   0.158653
   56  H 16  S    0.055931  -0.399825   0.231845  -0.090720  -0.220189
   57  H 17  S   -0.175370   0.116746  -0.543301   0.170108   0.164004
   58  H 18  S    0.117157  -0.210680   0.073980  -0.085552   0.691077
   59  H 19  S   -0.085877   0.382433  -0.015315   0.086874  -0.571809
   60  H 20  S    0.040521  -0.455126   0.005614  -0.092945  -0.123244

                     51         52         53         54         55
                    0.7406     0.7831     0.7977     0.8486     0.9145
                     A          A          A          A          A   
    1  C  1  S    0.044081  -0.006525   0.020220   0.001193  -0.005166
    2  C  1  S   -0.301840   0.041050  -0.137030  -0.007041   0.039817
    3  C  1  X   -0.087749  -0.012119   0.008763   0.026684   0.000145
    4  C  1  Y   -0.099946   0.158176   0.037852   0.131672   0.053338
    5  C  1  Z    0.071932   0.320802  -0.076280   0.046423   0.074196
    6  C  2  S    0.026514   0.074863  -0.038237  -0.002360   0.007344
    7  C  2  S   -0.163449  -0.504127   0.258204   0.014580  -0.055425
    8  C  2  X    0.104695   0.031057   0.024806  -0.005979  -0.015330
    9  C  2  Y   -0.039671   0.023691  -0.028300  -0.067775  -0.047350
   10  C  2  Z   -0.185740  -0.032665   0.003169   0.018422   0.044233
   11  C  3  S   -0.155971  -0.081049  -0.079313  -0.019198  -0.010859
   12  C  3  S    0.992582   0.509103   0.518949   0.128666   0.071934
   13  C  3  X   -0.267956  -0.384619  -0.112859  -0.114795  -0.069637
   14  C  3  Y    0.399557  -0.319029   0.473275   0.031618  -0.023969
   15  C  3  Z   -0.085568   0.413839   0.107899   0.087255   0.049627
   16  C  4  S   -0.048091   0.078509   0.084839  -0.026643   0.045551
   17  C  4  S    0.316078  -0.501272  -0.529765   0.168451  -0.299097
   18  C  4  X    0.183047   0.100080   0.013184   0.224601   0.018702
   19  C  4  Y   -0.040264   0.340191  -0.592294  -0.105142   0.097997
   20  C  4  Z    0.362659  -0.421310  -0.199487  -0.245913  -0.335088
   21  C  5  S    0.041344  -0.075193   0.044960  -0.024853   0.050051
   22  C  5  S   -0.266485   0.506984  -0.305594   0.174519  -0.375056
   23  C  5  X   -0.091116  -0.022867   0.159570   0.083561  -0.297552
   24  C  5  Y   -0.056479   0.045878   0.113059  -0.660096   0.265476
   25  C  5  Z   -0.029793   0.007623  -0.123474   0.109431   0.283902
   26  C  6  S   -0.042786  -0.000579   0.030137   0.049518  -0.057628
   27  C  6  S    0.279162   0.002668  -0.208188  -0.332646   0.436851
   28  C  6  X   -0.001310   0.278196  -0.108686  -0.161477  -0.138911
   29  C  6  Y   -0.009828  -0.112413  -0.042328   0.332742  -0.520503
   30  C  6  Z    0.048899  -0.221750   0.115386   0.044542   0.207159
   31  C  7  S   -0.000179   0.027544  -0.005857   0.045423  -0.077257
   32  C  7  S   -0.002805  -0.192187   0.041648  -0.305914   0.570193
   33  C  7  X   -0.082896   0.055296   0.110603  -0.318930  -0.282201
   34  C  7  Y    0.193422  -0.071327  -0.309057  -0.084605   0.274030
   35  C  7  Z    0.073120  -0.097279  -0.134255   0.452940   0.395332
   36  C  8  S    0.086029  -0.013420  -0.099377  -0.012642   0.052254
   37  C  8  S   -0.567061   0.092732   0.673209   0.085190  -0.394868
   38  C  8  X    0.043638   0.016142   0.025377   0.289681  -0.250681
   39  C  8  Y   -0.141637  -0.241006   0.163508   0.427009   0.447678
   40  C  8  Z   -0.057050   0.037252   0.058137  -0.462395   0.170264
   41  C  9  S   -0.027611   0.045285  -0.017537  -0.043743  -0.065394
   42  C  9  S    0.163459  -0.292328   0.104645   0.287759   0.434722
   43  C  9  X    0.142814   0.055775  -0.464525   0.185499  -0.073584
   44  C  9  Y    0.177582  -0.080157  -0.472497   0.172497   0.459458
   45  C  9  Z   -0.317321  -0.098765   0.304067  -0.137126   0.502881
   46  O 10  S    0.002265  -0.023543  -0.006906   0.015551   0.071041
   47  O 10  S   -0.014116   0.166557   0.052114  -0.109400  -0.521424
   48  O 10  X   -0.035199   0.012968   0.133589  -0.069713  -0.069863
   49  O 10  Y   -0.053078  -0.161448   0.051883   0.064062   0.469319
   50  O 10  Z    0.103811  -0.123002  -0.138153   0.117994   0.314143
   51  H 11  S    0.302014  -0.023434   0.027293  -0.075873  -0.026886
   52  H 12  S    0.090790   0.251855   0.048437   0.112975   0.052475
   53  H 13  S    0.155565   0.267557  -0.116216  -0.047213  -0.027911
   54  H 14  S   -0.500240  -0.738273  -0.323568  -0.160586  -0.099581
   55  H 15  S   -0.807109   0.173724  -0.527168  -0.043950  -0.008019
   56  H 16  S   -0.386762   0.627102   0.356851   0.165756   0.334838
   57  H 17  S    0.086000  -0.204878   0.271331  -0.562479   0.177283
   58  H 18  S   -0.125714  -0.256549   0.132073   0.424779  -0.369544
   59  H 19  S    0.091697  -0.012490  -0.156034   0.561086   0.161600
   60  H 20  S    0.345778   0.152071  -0.392671  -0.546407  -0.064956

                     56         57         58         59         60
                    0.9412     0.9768     1.0246     1.0500     1.1410
                     A          A          A          A          A   
    1  C  1  S   -0.008970  -0.005824  -0.017947   0.110857  -0.006865
    2  C  1  S    0.063048   0.046066   0.143502  -0.895240   0.057367
    3  C  1  X   -0.264518  -0.064320  -0.019423   0.223851  -0.009907
    4  C  1  Y   -0.884187  -0.178768   0.040656   0.081369   0.000874
    5  C  1  Z   -0.058998   0.036722   0.180299  -1.086865   0.063952
    6  C  2  S    0.016284   0.003571   0.019782  -0.104491   0.006335
    7  C  2  S   -0.141780  -0.038506  -0.155931   0.851323  -0.050143
    8  C  2  X    0.242681   0.048047  -0.059412   0.239496  -0.025679
    9  C  2  Y    0.861755   0.194238  -0.091171   0.133903  -0.022434
   10  C  2  Z    0.149348   0.094688   0.156352  -1.137788   0.070819
   11  C  3  S    0.055921   0.009226  -0.002194  -0.011108   0.001960
   12  C  3  S   -0.366010  -0.062472   0.008772   0.070842  -0.013234
   13  C  3  X   -0.000781  -0.014012   0.065106  -0.100238   0.032073
   14  C  3  Y    0.172577   0.073327  -0.033424  -0.288263   0.038366
   15  C  3  Z    0.366112   0.143307  -0.073933   0.183833  -0.058657
   16  C  4  S    0.004544  -0.002939   0.032563   0.011376   0.016744
   17  C  4  S   -0.032289   0.011918  -0.219845  -0.076151  -0.111891
   18  C  4  X    0.009282   0.148465  -0.149496   0.012272  -0.184725
   19  C  4  Y   -0.027890  -0.095613   0.267186   0.097856  -0.121380
   20  C  4  Z   -0.071017  -0.205463   0.149436  -0.018512   0.189202
   21  C  5  S    0.001168   0.036391   0.052774   0.003435  -0.069288
   22  C  5  S   -0.005588  -0.275216  -0.448625  -0.029819   0.571354
   23  C  5  X    0.039692  -0.241580  -0.611110  -0.087376   0.427132
   24  C  5  Y    0.065361  -0.519665   0.252729   0.042562   0.224639
   25  C  5  Z   -0.043461   0.386832   0.479319   0.078633  -0.458455
   26  C  6  S    0.016131  -0.074585  -0.048133  -0.007762   0.058742
   27  C  6  S   -0.112181   0.554334   0.416231   0.066567  -0.480540
   28  C  6  X    0.029617  -0.323051  -0.466043  -0.041594   0.568170
   29  C  6  Y   -0.166156   0.532044  -0.425888  -0.080630  -0.200357
   30  C  6  Z    0.012406   0.149520   0.562065   0.053393  -0.520487
   31  C  7  S    0.007385  -0.043497  -0.032189  -0.013712  -0.069712
   32  C  7  S   -0.061473   0.371788   0.231163   0.106072   0.576607
   33  C  7  X   -0.071942   0.101510  -0.088388  -0.057193  -0.449630
   34  C  7  Y   -0.211723   0.802893  -0.320626   0.033372   0.572286
   35  C  7  Z    0.129052  -0.220296   0.174275   0.068546   0.468092
   36  C  8  S   -0.011099   0.045113  -0.000199   0.009086   0.071716
   37  C  8  S    0.090632  -0.371621   0.015950  -0.071657  -0.596480
   38  C  8  X    0.125813  -0.400743   0.223755   0.001980  -0.145413
   39  C  8  Y    0.015314   0.357934   0.305334   0.130851   0.809589
   40  C  8  Z   -0.168397   0.514120  -0.290315  -0.008568   0.157035
   41  C  9  S   -0.015018   0.061021   0.038882   0.011679   0.015311
   42  C  9  S    0.102023  -0.412413  -0.267018  -0.080733  -0.109985
   43  C  9  X    0.049634  -0.117880   0.219373   0.039953   0.002411
   44  C  9  Y    0.028420  -0.290082  -0.509069  -0.086210  -0.505566
   45  C  9  Z   -0.039799   0.071740  -0.531081  -0.090731  -0.231719
   46  O 10  S    0.003876  -0.029816  -0.064253  -0.011986  -0.040324
   47  O 10  S   -0.026993   0.218286   0.486304   0.091084   0.313841
   48  O 10  X   -0.014049   0.047960   0.020289   0.004422   0.039043
   49  O 10  Y    0.016750  -0.158365  -0.420408  -0.079677  -0.239294
   50  O 10  Z    0.026108  -0.181641  -0.288607  -0.053391  -0.204083
   51  H 11  S    0.584229   0.120329  -0.020256  -0.103425   0.000170
   52  H 12  S   -0.595758  -0.107482   0.050127  -0.103610   0.007555
   53  H 13  S    0.615046   0.123777  -0.060439   0.143078  -0.020410
   54  H 14  S   -0.058598  -0.056475   0.057495  -0.155364   0.042877
   55  H 15  S    0.127706   0.028431   0.003676   0.207886  -0.026287
   56  H 16  S    0.056975   0.148275  -0.026206   0.045107  -0.091404
   57  H 17  S    0.052735  -0.384714   0.070019  -0.000702   0.127794
   58  H 18  S   -0.067090   0.269580  -0.085263  -0.038372  -0.238271
   59  H 19  S    0.128097  -0.292696   0.058351   0.025966   0.227040
   60  H 20  S   -0.113719   0.112767  -0.297585  -0.056812  -0.210214

 THE NUCLEAR REPULSION AT THE IRC POINT IS      495.1976660660

 * * * IRC RESTART INFORMATION * * *
 COORDINATES FOR $DATA AND ENTIRE $IRC GROUP FOLLOW

 COORDINATES OF SYMMETRY UNIQUE ATOMS (ANGS)
   ATOM   CHARGE       X              Y              Z
 ------------------------------------------------------------
 C           6.0  -0.4988449580   0.0535156303  -3.8205737602
 C           6.0  -0.7590231096  -0.0482170500  -2.5418051990
 C           6.0  -0.5652254017   1.0770270501  -1.5286307081
 C           6.0   0.8257368103   1.0354675546  -0.7723124586
 C           6.0   1.6791378354  -0.1542783822  -1.2052250113
 C           6.0   2.6158072421  -0.0471190473  -2.1236213488
 C           6.0   2.9298574527   1.2634775089  -2.7507287950
 C           6.0   2.4490887864   2.3898137369  -2.2593492727
 C           6.0   1.5710224131   2.3732568363  -1.0277218074
 O           8.0   1.4410375811   3.3440216017  -0.2961345262
 H           1.0  -0.1327514364   0.9699667771  -4.2632561208
 H           1.0  -0.6377047657  -0.7753922513  -4.5006686163
 H           1.0  -1.1178949454  -0.9878106156  -2.1361848765
 H           1.0  -1.3612332702   1.0333391782  -0.7881965466
 H           1.0  -0.6594050868   2.0315824518  -2.0415402610
 H           1.0   0.6272647102   0.9644314647   0.2965871039
 H           1.0   1.4453697418  -1.1100977189  -0.7512723440
 H           1.0   3.1879511243  -0.9065806272  -2.4478834065
 H           1.0   3.5926115323   1.2630968276  -3.6089046349
 H           1.0   2.7065731867   3.3576723375  -2.6700935334
 $IRC   PACE=GS2        STRIDE= 0.10000   NPOINT=??
        STOTAL=  9.998238   NEXTPT= 101
        NPRT= 0   NPUN= 0   SADDLE=.FALSE.
        GA(   1)= 2.063477054E-03,-3.824403038E-04, 3.031506941E-04
        GA(   4)=-1.407676381E-04, 2.917354655E-04,-6.330041569E-05
        GA(   7)=-8.689741583E-05, 2.160731771E-04, 1.374368121E-06
        GA(  10)=-1.527242309E-04, 5.650437434E-05, 1.614089707E-04
        GA(  13)=-1.764889910E-04, 6.144702757E-05, 1.608109812E-04
        GA(  16)=-5.683552311E-04, 1.044508679E-05,-2.626371620E-04
        GA(  19)=-1.065647445E-03,-1.445084439E-05,-5.793947331E-04
        GA(  22)=-7.838617342E-04,-1.454292706E-05,-4.089330738E-04
        GA(  25)=-2.851690907E-05,-2.336779754E-05, 1.463917539E-04
        GA(  28)= 8.700910812E-04,-2.381679920E-04, 6.256496360E-04
        GA(  31)= 3.513177583E-04,-7.839890363E-05, 5.455402121E-05
        GA(  34)= 1.699976183E-04,-2.389167955E-05, 3.453875612E-05
        GA(  37)=-1.738542864E-04, 6.026244536E-05,-2.674390055E-05
        GA(  40)=-1.402602664E-05, 2.787054533E-05,-8.082661799E-06
        GA(  43)= 8.108473869E-06, 3.070178208E-05, 9.356970130E-08
        GA(  46)=-2.044591710E-05, 6.538863443E-06, 1.332935008E-05
        GA(  49)= 8.781694385E-06, 6.141927434E-06, 3.420978614E-05
        GA(  52)=-5.476161411E-05, 1.258090069E-05,-2.439071413E-05
        GA(  55)=-1.171810839E-04,-6.585777068E-06,-1.088911732E-04
        GA(  58)=-8.824513850E-05, 1.544640886E-06,-5.313807366E-05
 $END   
 A GS2 RESTART ALSO REQUIRES THE UPDATED $HESS GROUP FROM THE PUNCH FILE
 ......DONE WITH THIS PORTION OF THE IRC......
 STEP CPU TIME =     0.01 TOTAL CPU TIME =        214.7 (      3.6 MIN)
 TOTAL WALL CLOCK TIME=        219.9 SECONDS, CPU UTILIZATION IS    97.64%

   1 warning(s) detected.
     A line exceeding 80 characters begins with " $irc npoint=100 sad".
 There may be a problem in your input file.

               580000  WORDS OF DYNAMIC MEMORY USED
 EXECUTION OF GAMESS TERMINATED NORMALLY Fri Nov 12 23:37:15 2021
 DDI: 263640 bytes (0.3 MB / 0 MWords) used by master data server.

 ----------------------------------------
 CPU timing information for all processes
 ========================================
 0: 198.973 + 15.727 = 214.700
 ----------------------------------------
 ddikick.x: exited gracefully.
----- accounting info -----
Files used on the master node chemcompute-node-0.novalocal were:
-rw-r--r--. 1 chemcomp chemcomp    60541 Nov 12 23:33 /scratch/305571/341437.F05
-rw-rw-r--. 1 chemcomp chemcomp 17281536 Nov 12 23:37 /scratch/305571/341437.F08
-rw-rw-r--. 1 chemcomp chemcomp 52428800 Nov 12 23:37 /scratch/305571/341437.F10
Fri Nov 12 23:37:19 UTC 2021
0.129u 0.088s 3:43.44 0.0%	0+0k 120+328io 0pf+0w
Finishing Up...
Looking for IR data...
Looking for Raman data...
vibramans not found
Looking for thermodynamics data...
Looking for UV-Vis data...
305571
