----- GAMESS execution script 'rungms' -----
This job is running on host chemcompute-node-0.novalocal
under operating system Linux at Fri Nov 12 21:23:16 UTC 2021
SLURM has assigned the following compute nodes to this run:
chemcompute-node-0
Available scratch disk space (Kbyte units) at beginning of the job is
Filesystem     1K-blocks     Used Available Use% Mounted on
/dev/sda1       62903276 16761280  46141996  27% /
GAMESS temporary binary files will be written to /scratch/305552
GAMESS supplementary output files will be written to /data/slurm/341413
Copying input file 341413.inp to your run's scratch directory...
The generated host list is
chemcompute-node-0.novalocal

 Distributed Data Interface kickoff program.
 Initiating 1 compute processes on 1 nodes to run the following command:
 /data/gamess-2019R1-ddi/gamess.00.x 341413 

          ******************************************************
          *         GAMESS VERSION = 30 JUN 2019 (R1)          *
          *             FROM IOWA STATE UNIVERSITY             *
          * M.W.SCHMIDT, K.K.BALDRIDGE, J.A.BOATZ, S.T.ELBERT, *
          *   M.S.GORDON, J.H.JENSEN, S.KOSEKI, N.MATSUNAGA,   *
          *          K.A.NGUYEN, S.J.SU, T.L.WINDUS,           *
          *       TOGETHER WITH M.DUPUIS, J.A.MONTGOMERY       *
          *         J.COMPUT.CHEM.  14, 1347-1363(1993)        *
          **************** 64 BIT LINUX VERSION ****************

  SINCE 1993, STUDENTS AND POSTDOCS WORKING AT IOWA STATE UNIVERSITY
  AND ALSO IN THEIR VARIOUS JOBS AFTER LEAVING ISU HAVE MADE IMPORTANT
  CONTRIBUTIONS TO THE CODE:
     IVANA ADAMOVIC, CHRISTINE AIKENS, YURI ALEXEEV, POOJA ARORA,
     ANDREY ASADCHEV, ROB BELL, PRADIPTA BANDYOPADHYAY, JONATHAN BENTZ,
     COLLEEN BERTONI, BRETT BODE, KURT BRORSEN, CALEB CARLIN, GALINA CHABAN,
     WEI CHEN, CHEOL HO CHOI, PAUL DAY, ALBERT DEFUSCO, NUWAN DESILVA,
     TIM DUDLEY, DMITRI FEDOROV, ALEX FINDLATER, GRAHAM FLETCHER, 
     MARK FREITAG, KURT GLAESEMANN, ANASTASIA GUNINA,
     DAN KEMP, GRANT MERRILL, NORIYUKI MINEZAWA, JONATHAN MULLIN,
     TAKESHI NAGATA, SEAN NEDD, HEATHER NETZLOFF, BOSILJKA NJEGIC, RYAN OLSON,
     MIKE PAK, BUU PHAM,
     SPENCER PRUITT, LUKE ROSKOP, JIM SHOEMAKER, LYUDMILA SLIPCHENKO,
     TONY SMITH, SAROM SOK LEANG, JIE SONG, TETSUYA TAKETSUGU, SIMON WEBB,
     PENG XU, SOOHAENG YOO, FEDERICO ZAHARIEV

  ADDITIONAL CODE HAS BEEN PROVIDED BY COLLABORATORS IN OTHER GROUPS:
     IOWA STATE UNIVERSITY:
          JOE IVANIC, AARON WEST, LAIMUTIS BYTAUTAS, KLAUS RUEDENBERG
     UNIVERSITY OF TOKYO: KIMIHIKO HIRAO, TAKAHITO NAKAJIMA,
          TAKAO TSUNEDA, MUNEAKI KAMIYA, SUSUMU YANAGISAWA,
          KIYOSHI YAGI, MAHITO CHIBA, SEIKEN TOKURA, NAOAKI KAWAKAMI
     UNIVERSITY OF AARHUS: FRANK JENSEN
     UNIVERSITY OF IOWA: VISVALDAS KAIRYS, HUI LI
     NATIONAL INST. OF STANDARDS AND TECHNOLOGY: WALT STEVENS, DAVID GARMER
     UNIVERSITY OF PISA: BENEDETTA MENNUCCI, JACOPO TOMASI
     UNIVERSITY OF MEMPHIS: HENRY KURTZ, PRAKASHAN KORAMBATH
     UNIVERSITY OF ALBERTA: TOBY ZENG, MARIUSZ KLOBUKOWSKI
     UNIVERSITY OF NEW ENGLAND: MARK SPACKMAN
     MIE UNIVERSITY: HIROAKI UMEDA
     NAT. INST. OF ADVANCED INDUSTRIAL SCIENCE AND TECHNOLOGY: KAZUO KITAURA
     MICHIGAN STATE UNIVERSITY:
          KAROL KOWALSKI, MARTA WLOCH, JEFFREY GOUR, JESSE LUTZ,
          WEI LI, JUN SHEN, J. EMILIANO DEUSTUA, PIOTR PIECUCH
     UNIVERSITY OF MINNESOTA:
          YINAN SHU
     UNIVERSITY OF SILESIA: MONIKA MUSIAL, STANISLAW KUCHARSKI
     FACULTES UNIVERSITAIRES NOTRE-DAME DE LA PAIX:
          OLIVIER QUINET, BENOIT CHAMPAGNE
     UNIVERSITY OF CALIFORNIA - SANTA BARBARA: BERNARD KIRTMAN
     INSTITUTE FOR MOLECULAR SCIENCE:
          KAZUYA ISHIMURA, MICHIO KATOUDA, AND SHIGERU NAGASE
     UNIVERSITY OF NOTRE DAME: ANNA POMOGAEVA, DAN CHIPMAN
     KYUSHU UNIVERSITY:
          HARUYUKI NAKANO,
          FENG LONG GU, JACEK KORCHOWIEC, MARCIN MAKOWSKI, AND YURIKO AOKI,
          HIROTOSHI MORI AND EISAKU MIYOSHI
     PENNSYLVANIA STATE UNIVERSITY:
          TZVETELIN IORDANOV, CHET SWALINA, JONATHAN SKONE,
          SHARON HAMMES-SCHIFFER
     WASEDA UNIVERSITY:
          MASATO KOBAYASHI, TOMOKO AKAMA, TSUGUKI TOUMA,
          TAKESHI YOSHIKAWA, YASUHIRO IKABATA, JUNJI SEINO,
          YUYA NAKAJIMA, HIROMI NAKAI
     NANJING UNIVERSITY: SHUHUA LI
     UNIVERSITY OF NEBRASKA:
          PEIFENG SU, DEJUN SI, NANDUN THELLAMUREGE, YALI WANG, HUI LI
     UNIVERSITY OF ZURICH: ROBERTO PEVERATI, KIM BALDRIDGE
     N. COPERNICUS UNIVERSITY AND JACKSON STATE UNIVERSITY:
          MARIA BARYSZ
     UNIVERSITY OF COPENHAGEN: Jimmy Kromann, CASPER STEINMANN
     TOKYO INSTITUTE OF TECHNOLOGY: HIROYA NAKATA
     NAGOYA UNIVERSITY: YOSHIO NISHIMOTO, STEPHAN IRLE
     MOSCOW STATE UNIVERSITY: VLADIMIR MIRONOV
     A.N.NESMEYANOV INSTITUTE OF ORGANOELEMENT COMPOUNDS OF RUSSIAN ACADEMY OF SCIENCES:
          IGOR S. GERASIMOV

 EXECUTION OF GAMESS BEGUN Fri Nov 12 21:23:16 2021

            ECHO OF THE FIRST FEW INPUT CARDS -
 INPUT CARD>!File created by the GAMESS Input Deck Generator Plugin for Avogadro            
 INPUT CARD> $BASIS GBASIS=STO NGAUSS=3 $END                                                
 INPUT CARD> $CONTRL SCFTYP=RHF RUNTYP=SADPOINT $END                                        
 INPUT CARD> $STATPT hssend=.t. OPTTOL=0.0005 NSTEP=50 $END                                 
 INPUT CARD> $STATPT HESS=calc ihrep=5 $END                                                 
 INPUT CARD> $FORCE nvib=2 $END                                                             
 INPUT CARD> $ZMAT DLC=.t. auto=.t. nonvdw(1)=1,6,3,4,4,5,5,6,1,2,2,3 $END                  
 INPUT CARD>!$ZMAT IFZMAT(1)=1,1,6,1,3,4 fvalue(1)=2.00,2.00 $END                           
 INPUT CARD>                                                                                
 INPUT CARD> $DATA                                                                          
 INPUT CARD>Title                                                                           
 INPUT CARD>C1                                                                              
 INPUT CARD>C     6.0     0.86288822    -1.76380742    -3.26966643                          
 INPUT CARD>C     6.0    -0.24841613    -1.85610318    -2.42396212                          
 INPUT CARD>C     6.0    -0.73053652    -0.70681387    -1.78683007                          
 INPUT CARD>C     6.0     0.76575750    -0.04424284    -0.63700229                          
 INPUT CARD>C     6.0     1.81994820    -0.93868375    -0.85902441                          
 INPUT CARD>C     6.0     2.33896780    -0.99507332    -2.16050601                          
 INPUT CARD>C     6.0     2.49819350     0.33700061    -2.84661198                          
 INPUT CARD>C     6.0     1.85989869     1.41300237    -2.43281889                          
 INPUT CARD>C     6.0     0.91561222     1.35316885    -1.25424385                          
 INPUT CARD>O     8.0     0.31522727     2.33087444    -0.82833141                          
 INPUT CARD>H     1.0     1.28419459    -2.68782496    -3.65182972                          
 INPUT CARD>H     1.0     0.87294996    -0.96547252    -4.00159645                          
 INPUT CARD>H     1.0    -0.41111526    -2.80310535    -1.92249429                          
 INPUT CARD>H     1.0    -1.53567410    -0.82143855    -1.06901753                          
 INPUT CARD>H     1.0    -0.82979941     0.19128266    -2.38486814                          
 INPUT CARD>H     1.0     0.31042981    -0.02986702     0.34902257                          
 INPUT CARD>H     1.0     1.92302775    -1.80253685    -0.21375304                          
 INPUT CARD>H     1.0     3.13923478    -1.70140457    -2.35890651                          
 INPUT CARD>H     1.0     3.16659331     0.37369612    -3.69994926                          
 INPUT CARD>H     1.0     1.99392760     2.37893033    -2.90176964                          
 INPUT CARD> $END                                                                           
    1000000 WORDS OF MEMORY AVAILABLE

     BASIS OPTIONS
     -------------
     GBASIS=STO          IGAUSS=       3      POLAR=NONE    
     NDFUNC=       0     NFFUNC=       0     DIFFSP=       F
     NPFUNC=       0      DIFFS=       F     BASNAM=        


     RUN TITLE
     ---------
 Title                                                                           

 THE POINT GROUP OF THE MOLECULE IS C1      
 THE ORDER OF THE PRINCIPAL AXIS IS     0

 ATOM      ATOMIC                      COORDINATES (BOHR)
           CHARGE         X                   Y                   Z
 C           6.0     1.6306222938       -3.3331127189       -6.1787736240
 C           6.0    -0.4694384166       -3.5075264151       -4.5806242114
 C           6.0    -1.3805138468       -1.3356845386       -3.3766192189
 C           6.0     1.4470718480       -0.0836068445       -1.2037597817
 C           6.0     3.4392034098       -1.7738550766       -1.6233207517
 C           6.0     4.4200082361       -1.8804159125       -4.0827643537
 C           6.0     4.7209011793        0.6368388106       -5.3793166356
 C           6.0     3.5146988890        2.6701872993       -4.5973610799
 C           6.0     1.7302562068        2.5571183416       -2.3701771983
 O           8.0     0.5956931642        4.4047140034       -1.5653193919
 H           1.0     2.4267758900       -5.0792526774       -6.9009575246
 H           1.0     1.6496362254       -1.8244785115       -7.5619208039
 H           1.0    -0.7768951908       -5.2971010262       -3.6329874211
 H           1.0    -2.9020032554       -1.5522937753       -2.0201502078
 H           1.0    -1.5680935097        0.3614718136       -4.5067473014
 H           1.0     0.5866272793       -0.0564404839        0.6595570208
 H           1.0     3.6339955143       -3.4063007293       -0.4039346746
 H           1.0     5.9322935453       -3.2151884316       -4.4576869346
 H           1.0     5.9839936705        0.7061832695       -6.9918902699
 H           1.0     3.7679768034        4.4955264676       -5.4835494991

          INTERNUCLEAR DISTANCES (ANGS.)
          ------------------------------

                1 C          2 C          3 C          4 C          5 C     

   1 C       0.0000000    1.3995469 *  2.4197193 *  3.1459907    2.7217619 *
   2 C       1.3995469 *  0.0000000    1.3997297 *  2.7394546 *  2.7511488 *
   3 C       2.4197193 *  1.3997297 *  0.0000000    2.0000000 *  2.7238868 *
   4 C       3.1459907    2.7394546 *  2.0000000 *  0.0000000    1.4002273 *
   5 C       2.7217619 *  2.7511488 *  2.7238868 *  1.4002273 *  0.0000000  
   6 C       2.0000000 *  2.7395870 *  3.1055731    2.3874951 *  1.4022894 *
   7 C       2.6956618 *  3.5400850    3.5549098    2.8335589 *  2.4572122 *
   8 C       3.4331420    3.8900027    3.4089994    2.5584499 *  2.8299916 *
   9 C       3.7121758    3.6086881    2.6901640 *  1.5349928 *  2.4953177 *
  10 O       4.7985903    4.5160284    3.3525948    2.4250292 *  3.5993246  
  11 H       1.0850605 *  2.1326780 *  3.3855236    4.0430790    3.3386058  
  12 H       1.0831258 *  2.1306372 *  2.7465002 *  3.4900785    3.2822679  
  13 H       2.1255818 *  1.0838607 *  2.1248230 *  3.2632563    3.0959135  
  14 H       3.3888074    2.1362207 *  1.0847305 *  2.4672369 *  3.3642302  
  15 H       2.7332100 *  2.1286906 *  1.0835497 *  2.3782996 *  3.2597831  
  16 H       4.0505147    3.3670301    2.4705737 *  1.0861745 *  2.1363453 *
  17 H       3.2348110    3.0988808    3.2736193    2.1470939 *  1.0831633 *
  18 H       2.4525765 *  3.3918052    4.0362869    3.3681647    2.1382017 *
  19 H       3.1719271    4.2734573    4.4738292    3.9141193    3.4068531  
  20 H       4.3100898    4.8157984    4.2646937    3.5368547    3.8999539  

                6 C          7 C          8 C          9 C         10 O     

   1 C       2.0000000 *  2.6956618 *  3.4331420    3.7121758    4.7985903  
   2 C       2.7395870 *  3.5400850    3.8900027    3.6086881    4.5160284  
   3 C       3.1055731    3.5549098    3.4089994    2.6901640 *  3.3525948  
   4 C       2.3874951 *  2.8335589 *  2.5584499 *  1.5349928 *  2.4250292 *
   5 C       1.4022894 *  2.4572122 *  2.8299916 *  2.4953177 *  3.5993246  
   6 C       0.0000000    1.5068229 *  2.4703219 *  2.8916247 *  4.1148686  
   7 C       1.5068229 *  0.0000000    1.3177347 *  2.4643047 *  3.5797110  
   8 C       2.4703219 *  1.3177347 *  0.0000000    1.5113888 *  2.4089166 *
   9 C       2.8916247 *  2.4643047 *  1.5113888 *  0.0000000    1.2238348 *
  10 O       4.1148686    3.5797110    2.4089166 *  1.2238348 *  0.0000000  
  11 H       2.4903817 *  3.3573410    4.3167357    4.7131626    5.8393822  
  12 H       2.3536564 *  2.3815629 *  3.0153397    3.5952558    4.6094001  
  13 H       3.2997858    4.3793078    4.8159630    4.4137716    5.2992938  
  14 H       4.0291868    4.5578406    4.2874929    3.2820772    3.6634469  
  15 H       3.3909976    3.3630311    2.9545514 *  2.3821739 *  2.8830098 *
  16 H       3.3681335    3.8901134    3.4959073    2.2021574 *  2.6380458 *
  17 H       2.1482203 *  3.4409857    3.9074200    3.4721730    4.4774790  
  18 H       1.0856767 *  2.1917770 *  3.3677432    3.9363937    5.1552839  
  19 H       2.2199953 *  1.0845688 *  2.0960028 *  3.4652212    4.4952224  
  20 H       3.4716603    2.1039970 *  1.0820792 *  2.2202009 *  2.6682373 *

               11 H         12 H         13 H         14 H         15 H     

   1 C       1.0850605 *  1.0831258 *  2.1255818 *  3.3888074    2.7332100 *
   2 C       2.1326780 *  2.1306372 *  1.0838607 *  2.1362207 *  2.1286906 *
   3 C       3.3855236    2.7465002 *  2.1248230 *  1.0847305 *  1.0835497 *
   4 C       4.0430790    3.4900785    3.2632563    2.4672369 *  2.3782996 *
   5 C       3.3386058    3.2822679    3.0959135    3.3642302    3.2597831  
   6 C       2.4903817 *  2.3536564 *  3.2997858    4.0291868    3.3909976  
   7 C       3.3573410    2.3815629 *  4.3793078    4.5578406    3.3630311  
   8 C       4.3167357    3.0153397    4.8159630    4.2874929    2.9545514 *
   9 C       4.7131626    3.5952558    4.4137716    3.2820772    2.3821739 *
  10 O       5.8393822    4.6094001    5.2992938    3.6634469    2.8830098 *
  11 H       0.0000000    1.8049811 *  2.4244517 *  4.2551118    3.7899107  
  12 H       1.8049811 *  0.0000000    3.0575127    3.7976618    2.6174889 *
  13 H       2.4244517 *  3.0575127    0.0000000    2.4331170 *  3.0586673  
  14 H       4.2551118    3.7976618    2.4331170 *  0.0000000    1.8042522 *
  15 H       3.7899107    2.6174889 *  3.0586673    1.8042522 *  0.0000000  
  16 H       4.9009976    4.4854958    3.6566743    2.4587645 *  2.9703852 *
  17 H       3.6072447    4.0188428    3.0609080    3.6954905    4.0332511  
  18 H       2.4669515 *  2.8941446 *  3.7428847    4.9287855    4.3972914  
  19 H       3.5942526    2.6730439 *  5.1040584    5.5191908    4.2111599  
  20 H       5.1709110    3.6947585    5.7962665    5.1048437    3.6092137  

               16 H         17 H         18 H         19 H         20 H     

   1 C       4.0505147    3.2348110    2.4525765 *  3.1719271    4.3100898  
   2 C       3.3670301    3.0988808    3.3918052    4.2734573    4.8157984  
   3 C       2.4705737 *  3.2736193    4.0362869    4.4738292    4.2646937  
   4 C       1.0861745 *  2.1470939 *  3.3681647    3.9141193    3.5368547  
   5 C       2.1363453 *  1.0831633 *  2.1382017 *  3.4068531    3.8999539  
   6 C       3.3681335    2.1482203 *  1.0856767 *  2.2199953 *  3.4716603  
   7 C       3.8901134    3.4409857    2.1917770 *  1.0845688 *  2.1039970 *
   8 C       3.4959073    3.9074200    3.3677432    2.0960028 *  1.0820792 *
   9 C       2.2021574 *  3.4721730    3.9363937    3.4652212    2.2202009 *
  10 O       2.6380458 *  4.4774790    5.1552839    4.4952224    2.6682373 *
  11 H       4.9009976    3.6072447    2.4669515 *  3.5942526    5.1709110  
  12 H       4.4854958    4.0188428    2.8941446 *  2.6730439 *  3.6947585  
  13 H       3.6566743    3.0609080    3.7428847    5.1040584    5.7962665  
  14 H       2.4587645 *  3.6954905    4.9287855    5.5191908    5.1048437  
  15 H       2.9703852 *  4.0332511    4.3972914    4.2111599    3.6092137  
  16 H       0.0000000    2.4616147 *  4.2578228    4.9713887    4.3822505  
  17 H       2.4616147 *  0.0000000    2.4680095 *  4.2937174    4.9714312  
  18 H       4.2578228    2.4680095 *  0.0000000    2.4708677 *  4.2726528  
  19 H       4.9713887    4.2937174    2.4708677 *  0.0000000    2.4562573 *
  20 H       4.3822505    4.9714312    4.2726528    2.4562573 *  0.0000000  

  * ... LESS THAN  3.000


     ATOMIC BASIS SET
     ----------------
 THE CONTRACTED PRIMITIVE FUNCTIONS HAVE BEEN UNNORMALIZED
 THE CONTRACTED BASIS FUNCTIONS ARE NOW NORMALIZED TO UNITY

  SHELL TYPE  PRIMITIVE        EXPONENT          CONTRACTION COEFFICIENT(S)

 C         

      1   S       1            71.6168373    0.154328967295
      1   S       2            13.0450963    0.535328142282
      1   S       3             3.5305122    0.444634542185

      2   L       4             2.9412494   -0.099967229187    0.155916274999
      2   L       5             0.6834831    0.399512826089    0.607683718598
      2   L       6             0.2222899    0.700115468880    0.391957393099

 C         

      3   S       7            71.6168373    0.154328967295
      3   S       8            13.0450963    0.535328142282
      3   S       9             3.5305122    0.444634542185

      4   L      10             2.9412494   -0.099967229187    0.155916274999
      4   L      11             0.6834831    0.399512826089    0.607683718598
      4   L      12             0.2222899    0.700115468880    0.391957393099

 C         

      5   S      13            71.6168373    0.154328967295
      5   S      14            13.0450963    0.535328142282
      5   S      15             3.5305122    0.444634542185

      6   L      16             2.9412494   -0.099967229187    0.155916274999
      6   L      17             0.6834831    0.399512826089    0.607683718598
      6   L      18             0.2222899    0.700115468880    0.391957393099

 C         

      7   S      19            71.6168373    0.154328967295
      7   S      20            13.0450963    0.535328142282
      7   S      21             3.5305122    0.444634542185

      8   L      22             2.9412494   -0.099967229187    0.155916274999
      8   L      23             0.6834831    0.399512826089    0.607683718598
      8   L      24             0.2222899    0.700115468880    0.391957393099

 C         

      9   S      25            71.6168373    0.154328967295
      9   S      26            13.0450963    0.535328142282
      9   S      27             3.5305122    0.444634542185

     10   L      28             2.9412494   -0.099967229187    0.155916274999
     10   L      29             0.6834831    0.399512826089    0.607683718598
     10   L      30             0.2222899    0.700115468880    0.391957393099

 C         

     11   S      31            71.6168373    0.154328967295
     11   S      32            13.0450963    0.535328142282
     11   S      33             3.5305122    0.444634542185

     12   L      34             2.9412494   -0.099967229187    0.155916274999
     12   L      35             0.6834831    0.399512826089    0.607683718598
     12   L      36             0.2222899    0.700115468880    0.391957393099

 C         

     13   S      37            71.6168373    0.154328967295
     13   S      38            13.0450963    0.535328142282
     13   S      39             3.5305122    0.444634542185

     14   L      40             2.9412494   -0.099967229187    0.155916274999
     14   L      41             0.6834831    0.399512826089    0.607683718598
     14   L      42             0.2222899    0.700115468880    0.391957393099

 C         

     15   S      43            71.6168373    0.154328967295
     15   S      44            13.0450963    0.535328142282
     15   S      45             3.5305122    0.444634542185

     16   L      46             2.9412494   -0.099967229187    0.155916274999
     16   L      47             0.6834831    0.399512826089    0.607683718598
     16   L      48             0.2222899    0.700115468880    0.391957393099

 C         

     17   S      49            71.6168373    0.154328967295
     17   S      50            13.0450963    0.535328142282
     17   S      51             3.5305122    0.444634542185

     18   L      52             2.9412494   -0.099967229187    0.155916274999
     18   L      53             0.6834831    0.399512826089    0.607683718598
     18   L      54             0.2222899    0.700115468880    0.391957393099

 O         

     19   S      55           130.7093214    0.154328967295
     19   S      56            23.8088661    0.535328142282
     19   S      57             6.4436083    0.444634542185

     20   L      58             5.0331513   -0.099967229187    0.155916274999
     20   L      59             1.1695961    0.399512826089    0.607683718598
     20   L      60             0.3803890    0.700115468880    0.391957393099

 H         

     21   S      61             3.4252509    0.154328967295
     21   S      62             0.6239137    0.535328142282
     21   S      63             0.1688554    0.444634542185

 H         

     22   S      64             3.4252509    0.154328967295
     22   S      65             0.6239137    0.535328142282
     22   S      66             0.1688554    0.444634542185

 H         

     23   S      67             3.4252509    0.154328967295
     23   S      68             0.6239137    0.535328142282
     23   S      69             0.1688554    0.444634542185

 H         

     24   S      70             3.4252509    0.154328967295
     24   S      71             0.6239137    0.535328142282
     24   S      72             0.1688554    0.444634542185

 H         

     25   S      73             3.4252509    0.154328967295
     25   S      74             0.6239137    0.535328142282
     25   S      75             0.1688554    0.444634542185

 H         

     26   S      76             3.4252509    0.154328967295
     26   S      77             0.6239137    0.535328142282
     26   S      78             0.1688554    0.444634542185

 H         

     27   S      79             3.4252509    0.154328967295
     27   S      80             0.6239137    0.535328142282
     27   S      81             0.1688554    0.444634542185

 H         

     28   S      82             3.4252509    0.154328967295
     28   S      83             0.6239137    0.535328142282
     28   S      84             0.1688554    0.444634542185

 H         

     29   S      85             3.4252509    0.154328967295
     29   S      86             0.6239137    0.535328142282
     29   S      87             0.1688554    0.444634542185

 H         

     30   S      88             3.4252509    0.154328967295
     30   S      89             0.6239137    0.535328142282
     30   S      90             0.1688554    0.444634542185

 TOTAL NUMBER OF BASIS SET SHELLS             =   30
 NUMBER OF CARTESIAN GAUSSIAN BASIS FUNCTIONS =   60
 NUMBER OF ELECTRONS                          =   72
 CHARGE OF MOLECULE                           =    0
 SPIN MULTIPLICITY                            =    1
 NUMBER OF OCCUPIED ORBITALS (ALPHA)          =   36
 NUMBER OF OCCUPIED ORBITALS (BETA )          =   36
 TOTAL NUMBER OF ATOMS                        =   20
 THE NUCLEAR REPULSION ENERGY IS      509.6732972730

     $CONTRL OPTIONS
     ---------------
 SCFTYP=RHF          RUNTYP=SADPOINT     EXETYP=RUN     
 MPLEVL=       0     CITYP =NONE         CCTYP =NONE         VBTYP =NONE    
 DFTTYP=NONE         TDDFT =NONE    
 MULT  =       1     ICHARG=       0     NZVAR =       0     COORD =UNIQUE  
 PP    =NONE         RELWFN=NONE         LOCAL =NONE         NUMGRD=       F
 ISPHER=      -1     NOSYM =       0     MAXIT =      30     UNITS =ANGS    
 PLTORB=       F     MOLPLT=       F     AIMPAC=       F     FRIEND=        
 NPRINT=       7     IREST =       0     GEOM  =INPUT   
 NORMF =       0     NORMP =       0     ITOL  =      20     ICUT  =       9
 INTTYP=BEST         GRDTYP=BEST         QMTTOL= 1.0E-06

     $SYSTEM OPTIONS
     ---------------
  REPLICATED MEMORY=     1000000 WORDS (ON EVERY NODE).
 DISTRIBUTED MEMDDI=           0 MILLION WORDS IN AGGREGATE,
 MEMDDI DISTRIBUTED OVER   1 PROCESSORS IS           0 WORDS/PROCESSOR.
 TOTAL MEMORY REQUESTED ON EACH PROCESSOR=     1000000 WORDS.
 TIMLIM=      525600.00 MINUTES, OR     365.0 DAYS.
 PARALL= F  BALTYP=  DLB     KDIAG=    0  COREFL= F
 MXSEQ2=     300 MXSEQ3=     150  mem10=         0

          ----------------
          PROPERTIES INPUT
          ----------------

     MOMENTS            FIELD           POTENTIAL          DENSITY
 IEMOM =       1   IEFLD =       0   IEPOT =       0   IEDEN =       0
 WHERE =COMASS     WHERE =NUCLEI     WHERE =NUCLEI     WHERE =NUCLEI  
 OUTPUT=BOTH       OUTPUT=BOTH       OUTPUT=BOTH       OUTPUT=BOTH    
 IEMINT=       0   IEFINT=       0                     IEDINT=       0
                                                       MORB  =       0
          EXTRAPOLATION IN EFFECT
          SOSCF IN EFFECT
 ORBITAL PRINTING OPTION: NPREO=     1    60     2     1

     -------------------------------
     INTEGRAL TRANSFORMATION OPTIONS
     -------------------------------
     NWORD  =            0
     CUTOFF = 1.0E-09     MPTRAN =       0
     DIRTRF =       F     AOINTS =DUP     

          ----------------------
          INTEGRAL INPUT OPTIONS
          ----------------------
 NOPK  =       1 NORDER=       0 SCHWRZ=       T

     ------------------------------------------
     THE POINT GROUP IS C1 , NAXIS= 0, ORDER= 1
     ------------------------------------------

     DIMENSIONS OF THE SYMMETRY SUBSPACES ARE
 A   =   60

 ..... DONE SETTING UP THE RUN .....
 STEP CPU TIME =     0.05 TOTAL CPU TIME =          0.0 (      0.0 MIN)
 TOTAL WALL CLOCK TIME=          0.1 SECONDS, CPU UTILIZATION IS    71.43%


          -----------------------------
          STATIONARY POINT LOCATION RUN
          -----------------------------

 OBTAINING INITIAL HESSIAN, HESS=CALC    

     ---------------------------------
     HESSIAN MATRIX CONTROL PARAMETERS
     ---------------------------------
     METHOD=ANALYTIC   NVIB  =       2   VIBSIZ= 0.01000
     RDHESS=       F   PURIFY=       F   PRTIFC=       F
     VIBANL=       F   DECOMP=       F   PROJCT=       F
     SCLFAC= 1.00000   PRTSCN=       F   NPRT  =       0
     PULCOR=       F   NPUN  =       0   REDOVB=       T
     HSSTYP=GENERAL 
 Old integral subroutine is used

     ------------------------------
     CPHF RESPONSE SOLUTION OPTIONS
     ------------------------------
     POLAR  =       F     NWORD  =       0
     CPHF   =AO      

          ********************
          1 ELECTRON INTEGRALS
          ********************
 ...... END OF ONE-ELECTRON INTEGRALS ......
 STEP CPU TIME =     0.03 TOTAL CPU TIME =          0.1 (      0.0 MIN)
 TOTAL WALL CLOCK TIME=          0.1 SECONDS, CPU UTILIZATION IS    72.73%

          -------------
          GUESS OPTIONS
          -------------
          GUESS =HUCKEL            NORB  =       0          NORDER=       0
          MIX   =       F          PRTMO =       F          PUNMO =       F
          TOLZ  = 1.0E-08          TOLE  = 1.0E-05
          SYMDEN=       F          PURIFY=       F

 INITIAL GUESS ORBITALS GENERATED BY HUCKEL   ROUTINE.
 HUCKEL GUESS REQUIRES     53820 WORDS.

 SYMMETRIES FOR INITIAL GUESS ORBITALS FOLLOW.   BOTH SET(S).
    36 ORBITALS ARE OCCUPIED (   10 CORE ORBITALS).
    11=A       12=A       13=A       14=A       15=A       16=A       17=A   
    18=A       19=A       20=A       21=A       22=A       23=A       24=A   
    25=A       26=A       27=A       28=A       29=A       30=A       31=A   
    32=A       33=A       34=A       35=A       36=A       37=A       38=A   
    39=A       40=A       41=A       42=A       43=A       44=A       45=A   
    46=A   
 ...... END OF INITIAL ORBITAL SELECTION ......
 STEP CPU TIME =     0.03 TOTAL CPU TIME =          0.1 (      0.0 MIN)
 TOTAL WALL CLOCK TIME=          0.2 SECONDS, CPU UTILIZATION IS    68.75%

                    ----------------------
                    AO INTEGRAL TECHNOLOGY
                    ----------------------
     S,P,L SHELL ROTATED AXIS INTEGRALS, REPROGRAMMED BY
        KAZUYA ISHIMURA (IMS) AND JOSE SIERRA (SYNSTAR).
     S,P,D,L SHELL ROTATED AXIS INTEGRALS PROGRAMMED BY
        KAZUYA ISHIMURA (INSTITUTE FOR MOLECULAR SCIENCE).
     S,P,D,F,G SHELL TO TOTAL QUARTET ANGULAR MOMENTUM SUM 5,
        ERIC PROGRAM BY GRAHAM FLETCHER (ELORET AND NASA ADVANCED
        SUPERCOMPUTING DIVISION, AMES RESEARCH CENTER).
     S,P,D,F,G,L SHELL GENERAL RYS QUADRATURE PROGRAMMED BY
        MICHEL DUPUIS (PACIFIC NORTHWEST NATIONAL LABORATORY).

          --------------------
          2 ELECTRON INTEGRALS
          --------------------

 THE -PK- OPTION IS OFF, THE INTEGRALS ARE NOT IN SUPERMATRIX FORM.
 STORING   15000 INTEGRALS/RECORD ON DISK, USING 12 BYTES/INTEGRAL.
 TWO ELECTRON INTEGRAL EVALUATION REQUIRES   89821 WORDS OF MEMORY.
 SCHWARZ INEQUALITY OVERHEAD:      1797 INTEGRALS, T=        0.00
 II,JST,KST,LST =  1  1  1  1 NREC =         1 INTLOC =    1
 II,JST,KST,LST =  2  1  1  1 NREC =         1 INTLOC =    2
 II,JST,KST,LST =  3  1  1  1 NREC =         1 INTLOC =   34
 II,JST,KST,LST =  4  1  1  1 NREC =         1 INTLOC =  144
 II,JST,KST,LST =  5  1  1  1 NREC =         1 INTLOC = 1366
 II,JST,KST,LST =  6  1  1  1 NREC =         1 INTLOC = 1965
 II,JST,KST,LST =  7  1  1  1 NREC =         1 INTLOC = 6869
 II,JST,KST,LST =  8  1  1  1 NREC =         1 INTLOC = 8488
 II,JST,KST,LST =  9  1  1  1 NREC =         2 INTLOC = 5899
 II,JST,KST,LST = 10  1  1  1 NREC =         2 INTLOC = 9689
 II,JST,KST,LST = 11  1  1  1 NREC =         4 INTLOC = 5060
 II,JST,KST,LST = 12  1  1  1 NREC =         4 INTLOC =12167
 II,JST,KST,LST = 13  1  1  1 NREC =         7 INTLOC =12256
 II,JST,KST,LST = 14  1  1  1 NREC =         8 INTLOC = 8784
 II,JST,KST,LST = 15  1  1  1 NREC =        13 INTLOC = 6427
 II,JST,KST,LST = 16  1  1  1 NREC =        14 INTLOC = 8635
 II,JST,KST,LST = 17  1  1  1 NREC =        21 INTLOC =12124
 II,JST,KST,LST = 18  1  1  1 NREC =        23 INTLOC = 7989
 II,JST,KST,LST = 19  1  1  1 NREC =        34 INTLOC =  293
 II,JST,KST,LST = 20  1  1  1 NREC =        35 INTLOC =10975
 II,JST,KST,LST = 21  1  1  1 NREC =        47 INTLOC =14077
 II,JST,KST,LST = 22  1  1  1 NREC =        51 INTLOC = 9983
 II,JST,KST,LST = 23  1  1  1 NREC =        55 INTLOC =14209
 II,JST,KST,LST = 24  1  1  1 NREC =        60 INTLOC = 3079
 II,JST,KST,LST = 25  1  1  1 NREC =        64 INTLOC =14390
 II,JST,KST,LST = 26  1  1  1 NREC =        70 INTLOC = 2530
 II,JST,KST,LST = 27  1  1  1 NREC =        75 INTLOC = 9320
 II,JST,KST,LST = 28  1  1  1 NREC =        81 INTLOC = 4483
 II,JST,KST,LST = 29  1  1  1 NREC =        87 INTLOC = 2579
 II,JST,KST,LST = 30  1  1  1 NREC =        93 INTLOC = 5527
 SCHWARZ INEQUALITY TEST SKIPPED       24173 INTEGRAL BLOCKS.
 TOTAL NUMBER OF NONZERO TWO-ELECTRON INTEGRALS =             1483089
         99 INTEGRAL RECORDS WERE STORED ON DISK FILE  8.
  ...... END OF TWO-ELECTRON INTEGRALS .....
 STEP CPU TIME =     0.31 TOTAL CPU TIME =          0.4 (      0.0 MIN)
 TOTAL WALL CLOCK TIME=          0.5 SECONDS, CPU UTILIZATION IS    89.36%

          --------------------------
                 RHF SCF CALCULATION
          --------------------------

     NUCLEAR ENERGY =       509.6732972730
     MAXIT =   30     NPUNCH=    2
     EXTRAP=T  DAMP=F  SHIFT=F  RSTRCT=F  DIIS=F  DEM=F  SOSCF=T
     DENSITY MATRIX CONV=  1.00E-05
     SOSCF WILL OPTIMIZE     864 ORBITAL ROTATIONS, SOGTOL=   0.250
     MEMORY REQUIRED FOR RHF ITERS=     59496 WORDS.

 ITER EX DEM     TOTAL ENERGY        E CHANGE  DENSITY CHANGE     ORB. GRAD
   1  0  0     -415.5233188191  -415.5233188191   0.524937153   0.000000000
          ---------------START SECOND ORDER SCF---------------
   2  1  0     -416.0288472323    -0.5055284133   0.255017765   0.064718941
   3  2  0     -416.0582523052    -0.0294050729   0.126522122   0.049268361
   4  3  0     -416.0921771759    -0.0339248707   0.017229497   0.007298047
   5  4  0     -416.0930434373    -0.0008662615   0.003686117   0.002938944
   6  5  0     -416.0931515115    -0.0001080741   0.002075971   0.000763349
   7  6  0     -416.0931640485    -0.0000125371   0.000574524   0.000261626
   8  7  0     -416.0931659027    -0.0000018541   0.000217729   0.000073018
   9  8  0     -416.0931660802    -0.0000001775   0.000125894   0.000023570
  10  9  0     -416.0931661120    -0.0000000318   0.000044757   0.000011426
  11 10  0     -416.0931661170    -0.0000000051   0.000022102   0.000003473
  12 11  0     -416.0931661180    -0.0000000010   0.000007391   0.000001377
  13 12  0     -416.0931661181    -0.0000000001   0.000003895   0.000000513

          -----------------
          DENSITY CONVERGED
          -----------------
     TIME TO FORM FOCK OPERATORS=       0.3 SECONDS (       0.0 SEC/ITER)
     TIME TO SOLVE SCF EQUATIONS=       0.1 SECONDS (       0.0 SEC/ITER)

 FINAL RHF ENERGY IS     -416.0931661181 AFTER  13 ITERATIONS

          ------------
          EIGENVECTORS
          ------------

                      1          2          3          4          5
                  -20.2612   -11.1181   -11.0543   -11.0493   -11.0456
                     A          A          A          A          A   
    1  C  1  S   -0.000000   0.000023  -0.030493  -0.005698  -0.084135
    2  C  1  S    0.000003  -0.000004  -0.003830   0.000016  -0.002952
    3  C  1  X    0.000001   0.000002  -0.001783  -0.000145   0.000144
    4  C  1  Y   -0.000002   0.000015  -0.000952  -0.000129  -0.000081
    5  C  1  Z    0.000000  -0.000003  -0.001416  -0.000241  -0.000005
    6  C  2  S   -0.000000   0.000015  -0.000572   0.000062   0.003855
    7  C  2  S    0.000010  -0.000030   0.000351   0.000059  -0.006052
    8  C  2  X   -0.000007   0.000054   0.000212   0.000032   0.001897
    9  C  2  Y    0.000001   0.000005   0.000032   0.000052  -0.003576
   10  C  2  Z    0.000007  -0.000031  -0.000116  -0.000000  -0.002210
   11  C  3  S   -0.000005  -0.000222  -0.000699   0.000653   0.958790
   12  C  3  S   -0.000000   0.000304  -0.000021   0.000046   0.035531
   13  C  3  X    0.000014  -0.000194  -0.000074  -0.000008  -0.000242
   14  C  3  Y    0.000035  -0.000073  -0.000007   0.000024  -0.000567
   15  C  3  Z    0.000027  -0.000173   0.000021   0.000011  -0.000779
   16  C  4  S   -0.000024  -0.001607  -0.004049  -0.005413  -0.240054
   17  C  4  S    0.000270  -0.005398  -0.000068  -0.000229  -0.011266
   18  C  4  X   -0.000251  -0.000340  -0.000030  -0.000100   0.001379
   19  C  4  Y    0.000308  -0.003754  -0.000003  -0.000029   0.000858
   20  C  4  Z    0.000265   0.001432   0.000189   0.000142   0.001245
   21  C  5  S    0.000004  -0.000277   0.003951  -0.001148  -0.002007
   22  C  5  S    0.000033   0.000070  -0.006881  -0.000015   0.001793
   23  C  5  X   -0.000047  -0.000015  -0.001819  -0.000081  -0.000905
   24  C  5  Y   -0.000042  -0.000023   0.000199  -0.000090   0.000773
   25  C  5  Z    0.000033  -0.000007   0.004184   0.000076   0.000205
   26  C  6  S    0.000003  -0.000254   0.991336   0.024238  -0.003033
   27  C  6  S    0.000007  -0.000064   0.036233  -0.004858   0.000113
   28  C  6  X    0.000031   0.000032   0.000663  -0.000406  -0.000130
   29  C  6  Y   -0.000026  -0.000103   0.000938  -0.003741  -0.000075
   30  C  6  Z   -0.000010  -0.000015   0.001315   0.001753  -0.000105
   31  C  7  S    0.000005  -0.000272  -0.023442   0.991729  -0.002390
   32  C  7  S    0.000054   0.000111  -0.006871   0.035857  -0.000057
   33  C  7  X    0.000016  -0.000035   0.000396  -0.000871  -0.000026
   34  C  7  Y    0.000062  -0.000057   0.003723   0.001351  -0.000014
   35  C  7  Z   -0.000041   0.000060  -0.002149   0.000465   0.000039
   36  C  8  S   -0.000025  -0.001005  -0.001146   0.019706   0.000524
   37  C  8  S    0.000270  -0.005689   0.000345  -0.007398   0.000039
   38  C  8  X   -0.000181   0.002602   0.000050  -0.002218  -0.000046
   39  C  8  Y    0.000475  -0.000035  -0.000169   0.003722  -0.000021
   40  C  8  Z    0.000073  -0.003200   0.000058   0.001445  -0.000017
   41  C  9  S    0.000548   0.992564   0.000267   0.000342  -0.000395
   42  C  9  S   -0.007195   0.032729  -0.000008   0.000149   0.001519
   43  C  9  X    0.003134  -0.000214  -0.000075  -0.000067  -0.000098
   44  C  9  Y   -0.005100   0.000367   0.000078   0.000132  -0.000967
   45  C  9  Z   -0.002212  -0.000028   0.000094   0.000035   0.000472
   46  O 10  S    0.994267   0.000162   0.000005   0.000013  -0.000003
   47  O 10  S    0.025993  -0.005790  -0.000052  -0.000115  -0.000031
   48  O 10  X    0.002749  -0.000845  -0.000017  -0.000038  -0.000021
   49  O 10  Y   -0.004485   0.001373   0.000029   0.000039   0.000025
   50  O 10  Z   -0.001953   0.000618   0.000005   0.000035  -0.000040
   51  H 11  S   -0.000002   0.000002   0.000358  -0.000012   0.000489
   52  H 12  S   -0.000002   0.000006   0.000363  -0.000951   0.000556
   53  H 13  S   -0.000002   0.000006  -0.000001   0.000001   0.000038
   54  H 14  S   -0.000006  -0.000035  -0.000017  -0.000014  -0.006698
   55  H 15  S    0.000080  -0.001059   0.000005  -0.000042  -0.006737
   56  H 16  S   -0.000179  -0.000014  -0.000090  -0.000023   0.001819
   57  H 17  S   -0.000020  -0.000052   0.000080  -0.000080  -0.000014
   58  H 18  S   -0.000016  -0.000026  -0.006924  -0.000128   0.000018
   59  H 19  S   -0.000021  -0.000038   0.000241  -0.006826   0.000025
   60  H 20  S   -0.000192   0.000012  -0.000037   0.000011   0.000014

                      6          7          8          9         10
                  -11.0452   -11.0444   -11.0258   -11.0184   -11.0121
                     A          A          A          A          A   
    1  C  1  S    0.987976   0.016894  -0.000217   0.000974  -0.003466
    2  C  1  S    0.035881   0.000648   0.000047   0.000289  -0.007236
    3  C  1  X   -0.001547  -0.000040   0.000014  -0.000061   0.003605
    4  C  1  Y   -0.000380  -0.000083   0.000024   0.000009   0.000262
    5  C  1  Z   -0.000521  -0.000064  -0.000047  -0.000073  -0.002911
    6  C  2  S    0.004583   0.000518   0.000105  -0.018461   0.991933
    7  C  2  S   -0.007340  -0.001672   0.000028  -0.001166   0.036727
    8  C  2  X   -0.003396   0.000336   0.000007  -0.000525   0.001914
    9  C  2  Y   -0.000539  -0.000825   0.000000  -0.000175   0.001096
   10  C  2  Z    0.002637  -0.000385   0.000007  -0.000441   0.001274
   11  C  3  S    0.077533   0.243179  -0.000271   0.000891  -0.003415
   12  C  3  S    0.003033   0.006213   0.000087   0.000298  -0.007232
   13  C  3  X   -0.000113  -0.002036  -0.000038  -0.000056  -0.001721
   14  C  3  Y   -0.000070  -0.000958   0.000069  -0.000008   0.003789
   15  C  3  Z    0.000021  -0.001682  -0.000016  -0.000046   0.002049
   16  C  4  S   -0.037038   0.961929   0.001491  -0.004609   0.000545
   17  C  4  S   -0.001525   0.034104   0.000248  -0.007296   0.000019
   18  C  4  X    0.000096   0.002090   0.000009  -0.003402  -0.000079
   19  C  4  Y    0.000069   0.000244   0.000029   0.003005   0.000129
   20  C  4  Z    0.000145   0.000937   0.000059   0.000779   0.000059
   21  C  5  S   -0.001014   0.005025  -0.004280   0.991918   0.018701
   22  C  5  S    0.000148  -0.006689  -0.000268   0.036682   0.000198
   23  C  5  X   -0.000155   0.003258  -0.000008  -0.001789   0.000463
   24  C  5  Y    0.000116  -0.002848  -0.000196  -0.000217   0.000278
   25  C  5  Z    0.000064  -0.000808   0.000106  -0.001683   0.000305
   26  C  6  S    0.031291   0.004835   0.000710  -0.003141   0.000405
   27  C  6  S   -0.001561   0.000170   0.000406  -0.007218   0.000020
   28  C  6  X    0.001890   0.000218   0.000098   0.001788   0.000108
   29  C  6  Y    0.001000  -0.000108   0.000092  -0.000139  -0.000011
   30  C  6  Z    0.001385   0.000048  -0.000086  -0.004234  -0.000115
   31  C  7  S    0.004719   0.005150  -0.019188   0.001213  -0.000076
   32  C  7  S    0.000131   0.000116  -0.008919   0.000147   0.000008
   33  C  7  X   -0.000016   0.000123   0.002272   0.000022  -0.000045
   34  C  7  Y    0.000022   0.000023  -0.003843  -0.000088   0.000004
   35  C  7  Z   -0.000075  -0.000122  -0.001489  -0.000158  -0.000010
   36  C  8  S    0.000343  -0.001221   0.991968   0.004375  -0.000031
   37  C  8  S    0.000019   0.000065   0.036541   0.000092  -0.000014
   38  C  8  X   -0.000016   0.000003   0.000902  -0.000027  -0.000002
   39  C  8  Y   -0.000011   0.000048  -0.001618   0.000137   0.000004
   40  C  8  Z   -0.000017   0.000011  -0.000432  -0.000143  -0.000002
   41  C  9  S   -0.000094   0.002579   0.001994   0.000339  -0.000013
   42  C  9  S    0.000235  -0.005469  -0.005878   0.000129  -0.000010
   43  C  9  X   -0.000019   0.000297  -0.002636  -0.000161  -0.000008
   44  C  9  Y   -0.000149   0.003640  -0.000142   0.000020  -0.000012
   45  C  9  Z    0.000072  -0.001794   0.003251   0.000027  -0.000048
   46  O 10  S    0.000001  -0.000022  -0.000022   0.000009   0.000000
   47  O 10  S   -0.000010   0.000244   0.000249  -0.000084   0.000005
   48  O 10  X   -0.000005  -0.000001   0.000142   0.000006   0.000008
   49  O 10  Y    0.000008  -0.000207  -0.000008   0.000049  -0.000001
   50  O 10  Z   -0.000007   0.000096  -0.000170   0.000016   0.000002
   51  H 11  S   -0.006894  -0.000160  -0.000010  -0.000031   0.000107
   52  H 12  S   -0.006912  -0.000132  -0.000105  -0.000057   0.000014
   53  H 13  S    0.000051   0.000009  -0.000004   0.000141  -0.007002
   54  H 14  S   -0.000651  -0.001562  -0.000018  -0.000040   0.000105
   55  H 15  S   -0.000596  -0.001564  -0.000210  -0.000044   0.000020
   56  H 16  S    0.000251  -0.006695  -0.000099   0.000120  -0.000032
   57  H 17  S   -0.000001   0.000068  -0.000031  -0.006920  -0.000118
   58  H 18  S   -0.000085  -0.000155  -0.000094   0.000106  -0.000042
   59  H 19  S    0.000012  -0.000092   0.000266  -0.000106  -0.000003
   60  H 20  S   -0.000002  -0.000067  -0.006868  -0.000089   0.000001

                     11         12         13         14         15
                   -1.3129    -1.0917    -1.0182    -0.9718    -0.9334
                     A          A          A          A          A   
    1  C  1  S   -0.000703  -0.056424  -0.102743   0.069566  -0.076331
    2  C  1  S    0.001711   0.149979   0.276492  -0.191481   0.219004
    3  C  1  X   -0.000084  -0.009710  -0.071183   0.034930   0.027401
    4  C  1  Y    0.000336   0.011290  -0.006081   0.000162   0.000088
    5  C  1  Z    0.000401   0.025262   0.040564  -0.006936   0.000271
    6  C  2  S   -0.001044  -0.058414  -0.147817   0.066224   0.012174
    7  C  2  S    0.002308   0.145763   0.383138  -0.175417  -0.032722
    8  C  2  X    0.000222   0.022379   0.031410  -0.025951   0.064193
    9  C  2  Y    0.000931   0.025766   0.053808  -0.008390  -0.046214
   10  C  2  Z    0.000476   0.002334   0.004310   0.021827  -0.057358
   11  C  3  S   -0.003134  -0.051103  -0.114856   0.018423   0.091594
   12  C  3  S    0.007674   0.135735   0.310151  -0.047017  -0.260648
   13  C  3  X    0.001662   0.023793   0.023897   0.006372   0.000144
   14  C  3  Y    0.002007  -0.015088  -0.061284   0.035854  -0.005962
   15  C  3  Z    0.000526  -0.008786  -0.041422   0.037729  -0.004271
   16  C  4  S   -0.021439  -0.087680  -0.008638  -0.125937   0.084109
   17  C  4  S    0.053622   0.230013   0.026262   0.348103  -0.241697
   18  C  4  X    0.003055   0.044241  -0.026808   0.063460   0.024535
   19  C  4  Y    0.025003  -0.021224  -0.018093  -0.039611  -0.049492
   20  C  4  Z   -0.010390  -0.029007  -0.002151   0.004629   0.011984
   21  C  5  S   -0.005571  -0.108609   0.008435  -0.128282  -0.047925
   22  C  5  S    0.012749   0.273118  -0.021869   0.342555   0.130759
   23  C  5  X   -0.003543  -0.020850  -0.019383  -0.056813   0.074380
   24  C  5  Y    0.004636   0.030414  -0.010058   0.037015  -0.054579
   25  C  5  Z   -0.000863  -0.054680   0.013391   0.002495  -0.086032
   26  C  6  S   -0.003225  -0.112732   0.031042  -0.020126  -0.131095
   27  C  6  S    0.007685   0.297007  -0.082814   0.051521   0.372699
   28  C  6  X   -0.001129  -0.024590  -0.022261  -0.024773   0.005507
   29  C  6  Y    0.002398   0.041748  -0.049283  -0.032507  -0.017415
   30  C  6  Z    0.001219   0.030619   0.001170   0.101933   0.019549
   31  C  7  S   -0.006025  -0.103318   0.093463   0.105313  -0.008340
   32  C  7  S    0.014334   0.263305  -0.245726  -0.283104   0.026818
   33  C  7  X   -0.004044  -0.036248   0.027788   0.031093   0.032470
   34  C  7  Y    0.004338  -0.001203  -0.042625  -0.073006  -0.126255
   35  C  7  Z    0.003394   0.041846  -0.027983  -0.001496   0.001621
   36  C  8  S   -0.021743  -0.081432   0.091462   0.105535   0.086808
   37  C  8  S    0.052869   0.204540  -0.237296  -0.279875  -0.235741
   38  C  8  X   -0.017232   0.016304  -0.025856  -0.040391   0.020568
   39  C  8  Y   -0.001902  -0.061197   0.052817   0.050084   0.006179
   40  C  8  Z    0.021581  -0.000324   0.009039   0.037648  -0.024933
   41  C  9  S   -0.127581  -0.035758   0.022140  -0.008438   0.070170
   42  C  9  S    0.295700   0.099324  -0.063441   0.023613  -0.207173
   43  C  9  X   -0.076149   0.042409  -0.044607  -0.032825  -0.052059
   44  C  9  Y    0.122421  -0.075337   0.011035  -0.070580   0.101883
   45  C  9  Z    0.053050  -0.030653   0.041219   0.069011   0.044085
   46  O 10  S   -0.214497   0.038236  -0.015263   0.006391  -0.049564
   47  O 10  S    0.749419  -0.142700   0.058506  -0.024983   0.198100
   48  O 10  X    0.081002  -0.003912  -0.006542  -0.008913  -0.008601
   49  O 10  Y   -0.132822   0.004682  -0.004212  -0.016033   0.021759
   50  O 10  Z   -0.058017   0.002913   0.005980   0.018488   0.008339
   51  H 11  S    0.000185   0.028696   0.060139  -0.048130   0.070684
   52  H 12  S    0.000422   0.037079   0.059984  -0.057593   0.064813
   53  H 13  S    0.000306   0.028996   0.087659  -0.042345  -0.008031
   54  H 14  S    0.001284   0.025215   0.068213  -0.006576  -0.078883
   55  H 15  S    0.003456   0.031873   0.071636  -0.011797  -0.082291
   56  H 16  S    0.008816   0.040033   0.010971   0.089825  -0.070818
   57  H 17  S    0.001521   0.051064  -0.000181   0.088615   0.040566
   58  H 18  S    0.000820   0.055683  -0.016065   0.008973   0.119130
   59  H 19  S    0.001621   0.049412  -0.055413  -0.078125   0.014408
   60  H 20  S    0.008802   0.035058  -0.052352  -0.075072  -0.064685

                     16         17         18         19         20
                   -0.8550    -0.7742    -0.7531    -0.7105    -0.6556
                     A          A          A          A          A   
    1  C  1  S   -0.132737   0.035948  -0.009410   0.068970   0.004020
    2  C  1  S    0.385013  -0.111695   0.033987  -0.220757  -0.011406
    3  C  1  X   -0.027403  -0.054585   0.063278  -0.099330   0.072974
    4  C  1  Y   -0.034782  -0.029065   0.023797  -0.048218  -0.127317
    5  C  1  Z   -0.035346   0.074155  -0.029100   0.162890  -0.004063
    6  C  2  S   -0.000760  -0.055337   0.046548  -0.115117  -0.004077
    7  C  2  S    0.002074   0.165214  -0.140860   0.355050   0.015594
    8  C  2  X    0.127819  -0.013874  -0.009542  -0.009388  -0.027266
    9  C  2  Y   -0.084951  -0.026750   0.050235  -0.126431  -0.120247
   10  C  2  Z   -0.119754   0.032848  -0.011976   0.079412   0.060780
   11  C  3  S    0.132131   0.014089  -0.036901   0.067770   0.001452
   12  C  3  S   -0.383391  -0.048088   0.114160  -0.217289  -0.003252
   13  C  3  X    0.050230   0.012350  -0.035691   0.085370  -0.068263
   14  C  3  Y    0.016948  -0.084696   0.082593  -0.169017  -0.030200
   15  C  3  Z    0.010485  -0.034611  -0.013880  -0.019172   0.112498
   16  C  4  S   -0.062515   0.081797   0.041383  -0.015600  -0.028200
   17  C  4  S    0.180623  -0.253421  -0.121199   0.049806   0.097393
   18  C  4  X    0.042881   0.084430  -0.043931   0.012354  -0.133403
   19  C  4  Y    0.051708  -0.104954   0.157065   0.122338   0.037985
   20  C  4  Z    0.014305  -0.047854  -0.109526  -0.021084   0.180357
   21  C  5  S    0.006541  -0.095481   0.057777   0.047489   0.026673
   22  C  5  S   -0.018813   0.283218  -0.175350  -0.145303  -0.080789
   23  C  5  X   -0.060198   0.049555   0.099427   0.029383   0.042759
   24  C  5  Y    0.042755  -0.088130  -0.002433   0.076157  -0.123745
   25  C  5  Z    0.057075  -0.022272  -0.139584  -0.056029   0.098106
   26  C  6  S    0.071511   0.007697  -0.084260  -0.031724  -0.032986
   27  C  6  S   -0.206924  -0.028993   0.259969   0.098727   0.110883
   28  C  6  X   -0.052815  -0.055612   0.039306   0.054739   0.189970
   29  C  6  Y   -0.032480  -0.072975  -0.052211   0.063759  -0.212421
   30  C  6  Z   -0.014581   0.178053  -0.004102  -0.030684  -0.075944
   31  C  7  S    0.052009   0.081139   0.082625  -0.019664   0.026250
   32  C  7  S   -0.151061  -0.246697  -0.244740   0.062686  -0.080049
   33  C  7  X   -0.032701  -0.060781  -0.038759   0.028341   0.119331
   34  C  7  Y    0.060219   0.112102  -0.134186  -0.093681   0.001682
   35  C  7  Z    0.000430   0.061681   0.090955   0.041675  -0.115241
   36  C  8  S   -0.036954  -0.088604  -0.001482   0.039498  -0.032413
   37  C  8  S    0.106527   0.263462   0.016027  -0.118981   0.113907
   38  C  8  X   -0.047118  -0.048019  -0.159230  -0.022498  -0.002869
   39  C  8  Y    0.027078   0.101425   0.056472  -0.066608   0.219135
   40  C  8  Z    0.046588   0.036516   0.165880   0.079717  -0.046556
   41  C  9  S   -0.062140  -0.000514  -0.107367  -0.051610  -0.014040
   42  C  9  S    0.189393   0.001192   0.343321   0.167571   0.044896
   43  C  9  X    0.051776   0.101400   0.063516   0.011907  -0.011531
   44  C  9  Y   -0.073870   0.122725  -0.060653  -0.082207   0.054802
   45  C  9  Z   -0.018935  -0.147154  -0.094461   0.056332   0.018075
   46  O 10  S    0.036102  -0.001260   0.058953   0.023325   0.029164
   47  O 10  S   -0.149811   0.005709  -0.258960  -0.104723  -0.139343
   48  O 10  X    0.021852   0.048891   0.059601   0.021147   0.051023
   49  O 10  Y   -0.028567   0.063569  -0.075158  -0.071910  -0.060226
   50  O 10  Z   -0.008105  -0.072660  -0.068146   0.023311  -0.030196
   51  H 11  S    0.143524  -0.053856   0.022822  -0.121305   0.100457
   52  H 12  S    0.122388  -0.091285   0.032272  -0.183333  -0.074233
   53  H 13  S    0.000496   0.085895  -0.083323   0.236774   0.105181
   54  H 14  S   -0.142619  -0.032265   0.045645  -0.121640   0.094368
   55  H 15  S   -0.119945  -0.049987   0.100632  -0.174439  -0.063075
   56  H 16  S    0.054686  -0.139333  -0.095836   0.001008   0.195690
   57  H 17  S   -0.009143   0.143507  -0.110936  -0.115464   0.078717
   58  H 18  S   -0.075632  -0.027038   0.138639   0.039377   0.260309
   59  H 19  S   -0.060629  -0.142229  -0.155822   0.013158   0.080787
   60  H 20  S    0.034300   0.139455  -0.022086  -0.111476   0.195621

                     21         22         23         24         25
                   -0.6060    -0.5917    -0.5868    -0.5546    -0.5419
                     A          A          A          A          A   
    1  C  1  S   -0.015522  -0.007150  -0.001086   0.000319   0.004291
    2  C  1  S    0.055526   0.020213  -0.001523  -0.002840  -0.022791
    3  C  1  X    0.149797   0.015790  -0.082641   0.018648  -0.099538
    4  C  1  Y   -0.232298  -0.115923  -0.097362  -0.223418  -0.174053
    5  C  1  Z   -0.085487  -0.077269   0.117473   0.122094   0.153235
    6  C  2  S    0.027094   0.005960  -0.004760   0.012582  -0.007377
    7  C  2  S   -0.083025  -0.016318   0.014693  -0.041400   0.023904
    8  C  2  X   -0.058185  -0.046136   0.101272   0.108979   0.129274
    9  C  2  Y   -0.227119  -0.104595  -0.021223  -0.104627  -0.061371
   10  C  2  Z    0.090772  -0.012115  -0.103179  -0.033478  -0.141056
   11  C  3  S   -0.014167  -0.009102   0.004541  -0.004195   0.001652
   12  C  3  S    0.051133   0.029061  -0.011903   0.023735  -0.001144
   13  C  3  X   -0.194048  -0.112180   0.031615   0.024632   0.027426
   14  C  3  Y   -0.007901   0.054609   0.169327   0.189685   0.244928
   15  C  3  Z    0.232273   0.012094  -0.086142  -0.007511  -0.124470
   16  C  4  S    0.001464   0.054913   0.012189  -0.020984  -0.006496
   17  C  4  S   -0.007501  -0.185646  -0.036637   0.072032   0.021586
   18  C  4  X    0.007319   0.073449  -0.118143   0.115530  -0.046820
   19  C  4  Y   -0.013246   0.082474   0.212387  -0.085908  -0.095920
   20  C  4  Z   -0.008685  -0.104512  -0.038581  -0.214787   0.131730
   21  C  5  S    0.005235  -0.055769   0.000237  -0.009398   0.017435
   22  C  5  S   -0.020174   0.190097   0.000687   0.026126  -0.056486
   23  C  5  X    0.005037   0.076776   0.164957  -0.127758  -0.037170
   24  C  5  Y    0.072295  -0.154434  -0.131832   0.195712  -0.058866
   25  C  5  Z   -0.077174   0.143434  -0.112101  -0.154483   0.194414
   26  C  6  S   -0.003886   0.056287  -0.007237  -0.000611   0.005314
   27  C  6  S    0.011917  -0.196116   0.020009   0.000039  -0.014001
   28  C  6  X   -0.060369   0.007592  -0.011793  -0.073036   0.140909
   29  C  6  Y    0.064987   0.025554  -0.142069   0.015571   0.015956
   30  C  6  Z    0.050269   0.039982   0.188537   0.036448  -0.145441
   31  C  7  S   -0.000734  -0.046259   0.006351   0.007857  -0.019775
   32  C  7  S   -0.008072   0.157011  -0.040363  -0.016211   0.065754
   33  C  7  X   -0.138705   0.127246  -0.072861   0.182817  -0.047267
   34  C  7  Y    0.066720   0.006407   0.256643  -0.075160  -0.056805
   35  C  7  Z    0.178450  -0.141857   0.038229  -0.188700   0.119049
   36  C  8  S   -0.014227   0.049925  -0.020055   0.018412  -0.005405
   37  C  8  S    0.034824  -0.162989   0.053677  -0.052176   0.015895
   38  C  8  X    0.053668  -0.044084   0.165856  -0.032170  -0.078109
   39  C  8  Y   -0.158317  -0.125147  -0.104309   0.238577  -0.161097
   40  C  8  Z    0.015371   0.101693  -0.165844  -0.054078   0.147383
   41  C  9  S    0.033248  -0.086017   0.007435   0.011692   0.020779
   42  C  9  S   -0.113898   0.299705  -0.022881  -0.038553  -0.070857
   43  C  9  X    0.035834  -0.025812  -0.172043  -0.034118   0.106493
   44  C  9  Y   -0.048174   0.020917  -0.183989  -0.024237   0.038303
   45  C  9  Z    0.001160   0.019654   0.192796  -0.052632  -0.212802
   46  O 10  S   -0.034089   0.054691  -0.002604  -0.009695  -0.028591
   47  O 10  S    0.167499  -0.269446   0.012599   0.049424   0.148059
   48  O 10  X   -0.070775   0.116699  -0.159581  -0.035171  -0.026096
   49  O 10  Y    0.099530  -0.215549  -0.163394   0.072918   0.243984
   50  O 10  Z    0.073010  -0.082620   0.192254  -0.058708  -0.106227
   51  H 11  S    0.248359   0.114460   0.010883   0.134126   0.045025
   52  H 12  S   -0.070933  -0.011142  -0.128244  -0.209642  -0.208429
   53  H 13  S    0.154315   0.069444  -0.028288   0.026784  -0.012879
   54  H 14  S    0.255345   0.075379  -0.086576  -0.034771  -0.113003
   55  H 15  S   -0.075596   0.058775   0.148258   0.144905   0.233741
   56  H 16  S   -0.002034  -0.186763  -0.003461  -0.174463   0.127947
   57  H 17  S   -0.085263   0.263975   0.043170  -0.210056   0.111730
   58  H 18  S   -0.065084  -0.101095   0.049078  -0.052899   0.098200
   59  H 19  S   -0.176774   0.230051  -0.072075   0.212576  -0.076622
   60  H 20  S   -0.086877  -0.209201   0.025321   0.169477  -0.176575

                     26         27         28         29         30
                   -0.5156    -0.5060    -0.4866    -0.4785    -0.4506
                     A          A          A          A          A   
    1  C  1  S    0.010054   0.008405  -0.003791  -0.030589   0.007158
    2  C  1  S   -0.036977  -0.017062   0.017690   0.106786  -0.025504
    3  C  1  X    0.077124   0.208131   0.146328  -0.173473   0.104899
    4  C  1  Y   -0.032278   0.034338  -0.252738   0.026257  -0.106855
    5  C  1  Z   -0.185746   0.070780   0.041330   0.226562  -0.125946
    6  C  2  S   -0.009520   0.017083   0.007639   0.007274  -0.002195
    7  C  2  S    0.033608  -0.060539  -0.032976  -0.032399   0.007498
    8  C  2  X   -0.186845   0.048592  -0.029083   0.237392  -0.130898
    9  C  2  Y    0.080855   0.023018   0.299081   0.143842   0.094908
   10  C  2  Z    0.065150   0.230148   0.073085  -0.151568   0.095037
   11  C  3  S   -0.009837   0.002885  -0.031997  -0.005298  -0.006820
   12  C  3  S    0.026613  -0.000508   0.110510   0.023872   0.022022
   13  C  3  X    0.040481   0.219372   0.159008  -0.089768   0.125835
   14  C  3  Y   -0.109623  -0.069560  -0.195325  -0.116044  -0.087823
   15  C  3  Z   -0.160143   0.103774  -0.119653   0.275948  -0.128389
   16  C  4  S   -0.011532  -0.008577  -0.001372  -0.000468   0.003650
   17  C  4  S    0.035815   0.042934   0.004781   0.008661  -0.004333
   18  C  4  X    0.206554  -0.155786   0.051997  -0.034345  -0.238793
   19  C  4  Y    0.095971  -0.076647  -0.123478   0.046444   0.152889
   20  C  4  Z   -0.140609  -0.190567   0.031569  -0.045902   0.167033
   21  C  5  S   -0.004800   0.021113   0.005592   0.007888  -0.000226
   22  C  5  S    0.018958  -0.074327  -0.022296  -0.028144   0.000930
   23  C  5  X   -0.004907  -0.164506  -0.087699   0.024060   0.250218
   24  C  5  Y    0.078992  -0.196087   0.078316  -0.048975  -0.124166
   25  C  5  Z    0.140056  -0.006074  -0.013912  -0.074156  -0.226053
   26  C  6  S    0.022073   0.006611   0.002824   0.011556  -0.004971
   27  C  6  S   -0.082690  -0.013497  -0.006789  -0.043248   0.007812
   28  C  6  X    0.222778  -0.123281   0.015783  -0.013540  -0.151286
   29  C  6  Y   -0.160978  -0.190563  -0.073621  -0.154213   0.101929
   30  C  6  Z   -0.047227  -0.137485  -0.007710   0.086059   0.274781
   31  C  7  S    0.019231  -0.000883  -0.011857   0.002254  -0.003210
   32  C  7  S   -0.072373  -0.001680   0.030003  -0.011435   0.021357
   33  C  7  X    0.086547  -0.145532  -0.007264   0.125865   0.128651
   34  C  7  Y    0.084168   0.055679   0.142074   0.119226  -0.036708
   35  C  7  Z   -0.044255  -0.142622   0.086580  -0.108426  -0.092232
   36  C  8  S   -0.010107  -0.003953   0.000975   0.003724   0.011158
   37  C  8  S    0.036163   0.009163  -0.014304  -0.015824  -0.036098
   38  C  8  X    0.026234  -0.143344   0.141825  -0.000329  -0.089475
   39  C  8  Y   -0.017235  -0.151326  -0.111682  -0.069579   0.049602
   40  C  8  Z    0.064489  -0.076439   0.012214   0.140252   0.115869
   41  C  9  S    0.006462  -0.008414  -0.007584  -0.014746   0.000396
   42  C  9  S   -0.014436   0.034045   0.021442   0.057969   0.001197
   43  C  9  X    0.177571  -0.180192   0.025470   0.202523   0.098671
   44  C  9  Y   -0.266231  -0.107961   0.215065  -0.074397  -0.057041
   45  C  9  Z    0.022449  -0.211347   0.134894  -0.030702  -0.143175
   46  O 10  S   -0.055821  -0.009992   0.034641  -0.021418  -0.018408
   47  O 10  S    0.297713   0.053776  -0.190409   0.119230   0.105848
   48  O 10  X   -0.168652  -0.204772   0.267766   0.038995  -0.044456
   49  O 10  Y    0.263611   0.011082  -0.181588   0.219935   0.265986
   50  O 10  Z    0.244765  -0.128269  -0.057973   0.063023  -0.069875
   51  H 11  S    0.102717   0.021054   0.270390  -0.110470   0.166421
   52  H 12  S    0.067790  -0.011770  -0.217621  -0.091824  -0.010014
   53  H 13  S    0.008066   0.039240  -0.239686  -0.251685  -0.015668
   54  H 14  S   -0.109031  -0.081552  -0.114189   0.277025  -0.157250
   55  H 15  S    0.005985  -0.094215  -0.076012  -0.244334   0.002639
   56  H 16  S   -0.181715  -0.079641   0.000201  -0.014192   0.256902
   57  H 17  S    0.031014   0.085707  -0.092950  -0.021934  -0.012141
   58  H 18  S    0.223848   0.056438   0.065203   0.048900  -0.232936
   59  H 19  S    0.052417   0.023347  -0.049587   0.163889   0.174783
   60  H 20  S   -0.016215  -0.105851  -0.092512  -0.129380  -0.037727

                     31         32         33         34         35
                   -0.4448    -0.4166    -0.3568    -0.3143    -0.2712
                     A          A          A          A          A   
    1  C  1  S    0.009206   0.002095  -0.005650   0.000051  -0.027302
    2  C  1  S   -0.037892   0.006785   0.006882  -0.000757   0.131675
    3  C  1  X   -0.044344   0.203453  -0.067422  -0.002005   0.269738
    4  C  1  Y    0.137573   0.130844   0.043943   0.017899   0.147472
    5  C  1  Z   -0.136086   0.110065  -0.143803  -0.027025   0.248570
    6  C  2  S   -0.002702   0.020825   0.012981   0.003309   0.006645
    7  C  2  S    0.015266  -0.073845  -0.049591  -0.010591  -0.028330
    8  C  2  X   -0.076181   0.079387   0.114838  -0.008239   0.035285
    9  C  2  Y   -0.156472  -0.136320  -0.052365  -0.018363   0.027297
   10  C  2  Z   -0.006397   0.187920   0.100205   0.001777   0.132638
   11  C  3  S    0.014593  -0.005345  -0.011604   0.002308   0.012014
   12  C  3  S   -0.052154   0.021623   0.066246  -0.010738  -0.071768
   13  C  3  X   -0.034856   0.071284   0.279071  -0.003848  -0.210405
   14  C  3  Y    0.116509   0.184695   0.087771   0.021772  -0.038735
   15  C  3  Z   -0.036144  -0.025285   0.199861  -0.017399  -0.148076
   16  C  4  S   -0.023870   0.008949  -0.015858   0.031822   0.012603
   17  C  4  S    0.087574  -0.029134   0.085472  -0.144798  -0.069305
   18  C  4  X    0.038051  -0.050685  -0.221851  -0.036040   0.216674
   19  C  4  Y   -0.114116   0.010758  -0.085104  -0.301806   0.170929
   20  C  4  Z    0.046300  -0.006281  -0.231334   0.135188   0.169755
   21  C  5  S   -0.004608   0.017119   0.011810  -0.007295   0.001801
   22  C  5  S    0.007954  -0.063381  -0.041846   0.023274  -0.003351
   23  C  5  X   -0.023274  -0.091047  -0.008598  -0.117758  -0.006892
   24  C  5  Y    0.161466  -0.145642  -0.087673   0.023541   0.049184
   25  C  5  Z   -0.174967  -0.045777   0.008123  -0.092308   0.075994
   26  C  6  S    0.002391  -0.006456   0.018111   0.001438  -0.005911
   27  C  6  S   -0.020110   0.037296  -0.078649  -0.009213   0.050604
   28  C  6  X    0.066833  -0.217100   0.199211  -0.022110  -0.213809
   29  C  6  Y   -0.268294  -0.095976   0.126275  -0.060697  -0.106107
   30  C  6  Z    0.209420  -0.104421   0.058128   0.073814  -0.126616
   31  C  7  S    0.009999   0.003077  -0.009187   0.012260   0.006447
   32  C  7  S   -0.052112  -0.008960   0.036255  -0.044396  -0.025671
   33  C  7  X    0.012822  -0.009507   0.310525   0.169143   0.243081
   34  C  7  Y    0.320006   0.012155   0.046861   0.024016   0.120781
   35  C  7  Z   -0.114500  -0.040379   0.327655   0.011165   0.167192
   36  C  8  S    0.005643  -0.000668   0.006441  -0.037099   0.005664
   37  C  8  S   -0.038444   0.002650  -0.027224   0.165555  -0.027870
   38  C  8  X    0.049419   0.073114   0.333302  -0.090163   0.318262
   39  C  8  Y   -0.205390   0.013212   0.097939  -0.008155   0.071012
   40  C  8  Z   -0.009560   0.086367   0.204058   0.317370   0.203656
   41  C  9  S    0.002636  -0.002313   0.006956  -0.001059  -0.009001
   42  C  9  S   -0.011145   0.012107  -0.025226   0.002719   0.037571
   43  C  9  X   -0.008419   0.349744  -0.052307   0.047769  -0.106726
   44  C  9  Y    0.155095   0.064754   0.007025   0.099056  -0.078572
   45  C  9  Z   -0.091852   0.256025   0.001582  -0.161264  -0.064632
   46  O 10  S    0.011118  -0.002740   0.000767   0.000306   0.000258
   47  O 10  S   -0.064652   0.016495  -0.006713  -0.001536   0.001256
   48  O 10  X    0.169588   0.352770   0.016553  -0.393726  -0.255942
   49  O 10  Y    0.065321   0.123714   0.032522  -0.459214   0.009979
   50  O 10  Z   -0.289433   0.325454  -0.122345   0.497293  -0.316977
   51  H 11  S   -0.110870  -0.078787  -0.008672  -0.010948  -0.072666
   52  H 12  S    0.182773   0.044855   0.124398   0.027634  -0.031395
   53  H 13  S    0.165008   0.173177   0.060636   0.018770   0.025306
   54  H 14  S   -0.041555  -0.086369  -0.069294  -0.016596   0.049214
   55  H 15  S    0.103158   0.160369  -0.040409   0.041101   0.069994
   56  H 16  S    0.069884   0.000741  -0.103230   0.110558   0.042299
   57  H 17  S   -0.248208   0.050246   0.069498  -0.113904   0.009397
   58  H 18  S    0.190402  -0.067995   0.011883   0.009177  -0.080023
   59  H 19  S    0.094864   0.022743  -0.058410   0.116495   0.009533
   60  H 20  S   -0.203955  -0.017873   0.035681  -0.120123   0.000827

                     36         37         38         39         40
                   -0.2234     0.2067     0.2159     0.3540     0.3894
                     A          A          A          A          A   
    1  C  1  S   -0.025327  -0.000454  -0.041469  -0.031130  -0.030403
    2  C  1  S    0.090302   0.028762   0.208752   0.134057   0.160008
    3  C  1  X    0.132084   0.130082   0.300377   0.278520   0.289570
    4  C  1  Y    0.070577   0.042418   0.149681   0.091023   0.138233
    5  C  1  Z    0.135691   0.051717   0.243057   0.322967   0.162677
    6  C  2  S    0.021705  -0.018746  -0.007579   0.001262  -0.007705
    7  C  2  S   -0.105093   0.105394   0.043132  -0.009080   0.057395
    8  C  2  X    0.386958  -0.367000  -0.189015   0.038695  -0.234246
    9  C  2  Y    0.031955  -0.076632  -0.007885   0.012001  -0.038599
   10  C  2  Z    0.379705  -0.369678  -0.121221   0.043191  -0.230899
   11  C  3  S   -0.030053  -0.025807   0.029762   0.040281  -0.021908
   12  C  3  S    0.113603   0.149969  -0.130231  -0.184685   0.121903
   13  C  3  X    0.219443   0.256254  -0.171261  -0.409227   0.152126
   14  C  3  Y    0.060735   0.133480  -0.038590  -0.083311   0.144685
   15  C  3  Z    0.146614   0.213415  -0.094608  -0.319130   0.132418
   16  C  4  S    0.031971  -0.009135  -0.022289  -0.051463  -0.008588
   17  C  4  S   -0.123838   0.071826   0.097664   0.249599   0.063776
   18  C  4  X    0.150676  -0.187013  -0.198753  -0.383601   0.038024
   19  C  4  Y    0.060485  -0.046291  -0.093027  -0.241627  -0.023028
   20  C  4  Z    0.152125  -0.113222  -0.153403  -0.309770   0.036961
   21  C  5  S   -0.022665  -0.019157  -0.006830  -0.002372   0.020653
   22  C  5  S    0.107799   0.108355   0.037500   0.013707  -0.115167
   23  C  5  X    0.401504   0.448888   0.123870   0.057428  -0.075879
   24  C  5  Y    0.320562   0.301857   0.132103  -0.014376  -0.110508
   25  C  5  Z    0.202911   0.244849   0.128955  -0.047466  -0.045591
   26  C  6  S    0.030046  -0.019816   0.009477   0.053888   0.006563
   27  C  6  S   -0.119075   0.111393  -0.017200  -0.269988  -0.014110
   28  C  6  X    0.218170  -0.229519   0.066487   0.413321   0.157622
   29  C  6  Y    0.094418  -0.124275   0.034102   0.225337   0.062302
   30  C  6  Z    0.139590  -0.210406   0.012850   0.233682   0.117254
   31  C  7  S    0.008319   0.015183   0.009063  -0.001348  -0.001000
   32  C  7  S   -0.034234  -0.073488  -0.042320   0.008454   0.007873
   33  C  7  X   -0.057391  -0.183760   0.356866  -0.324502   0.300578
   34  C  7  Y    0.018145   0.028278   0.149744  -0.100127   0.086330
   35  C  7  Z   -0.078016  -0.190805   0.255672  -0.251666   0.225599
   36  C  8  S   -0.004765  -0.007495  -0.002925   0.001411  -0.002306
   37  C  8  S    0.021404   0.033499   0.013120  -0.008380   0.012990
   38  C  8  X   -0.154433   0.223597  -0.226905   0.183037  -0.439077
   39  C  8  Y   -0.042138   0.058132  -0.061508   0.050020  -0.111705
   40  C  8  Z   -0.079546   0.208406  -0.184859   0.160984  -0.364328
   41  C  9  S    0.009036   0.018635   0.003409   0.001756  -0.000268
   42  C  9  S   -0.038305  -0.089396  -0.018401  -0.011666   0.003384
   43  C  9  X    0.013467   0.075030  -0.328824   0.170694   0.462068
   44  C  9  Y    0.058793   0.113630  -0.067366   0.037485   0.125068
   45  C  9  Z   -0.033478  -0.014479  -0.292324   0.136638   0.374787
   46  O 10  S   -0.000120  -0.002085  -0.000906  -0.001451   0.000128
   47  O 10  S   -0.001298   0.009063   0.004990   0.009502  -0.001438
   48  O 10  X   -0.034780  -0.085175   0.397549  -0.124971  -0.335411
   49  O 10  Y   -0.064987  -0.071464   0.089024  -0.048475  -0.085713
   50  O 10  Z    0.059611  -0.022176   0.331436  -0.110182  -0.266362
   51  H 11  S    0.002693  -0.044953  -0.056630   0.011879  -0.037134
   52  H 12  S    0.072356  -0.130726  -0.061050   0.066926  -0.071162
   53  H 13  S    0.047136  -0.016159  -0.004504   0.002202   0.010141
   54  H 14  S   -0.003106  -0.076826   0.005807  -0.001325  -0.040102
   55  H 15  S    0.060958  -0.129054  -0.044004  -0.032521  -0.079862
   56  H 16  S    0.005898  -0.067675   0.002759  -0.019002  -0.091459
   57  H 17  S   -0.061084  -0.020074  -0.006476   0.002967   0.030495
   58  H 18  S    0.005106  -0.054443  -0.068544   0.057254  -0.086163
   59  H 19  S    0.023129   0.030702   0.008700  -0.006580  -0.017232
   60  H 20  S   -0.024819  -0.041524  -0.022132   0.013728  -0.016488

                     41         42         43         44         45
                    0.5165     0.5729     0.5898     0.6220     0.6227
                     A          A          A          A          A   
    1  C  1  S   -0.010613   0.024669   0.003101  -0.007575   0.036466
    2  C  1  S    0.037475  -0.159155  -0.018428   0.051105  -0.230141
    3  C  1  X    0.363545  -0.024990  -0.027737  -0.047436  -0.091243
    4  C  1  Y    0.155456   0.254450   0.198319   0.046258   0.380444
    5  C  1  Z    0.247453  -0.001469  -0.099903  -0.024925  -0.069425
    6  C  2  S   -0.031065   0.020531   0.013931  -0.000747   0.042411
    7  C  2  S    0.194220  -0.127461  -0.087416   0.001704  -0.268126
    8  C  2  X   -0.255591   0.053385   0.047973  -0.047109   0.130584
    9  C  2  Y   -0.001218   0.225154   0.179661  -0.008001   0.442498
   10  C  2  Z   -0.264931  -0.106975  -0.072710   0.019440  -0.176294
   11  C  3  S   -0.011461   0.013116   0.025918   0.027875   0.030971
   12  C  3  S    0.041878  -0.084623  -0.166089  -0.175238  -0.194739
   13  C  3  X    0.336184   0.105516   0.125633   0.051560   0.142850
   14  C  3  Y    0.173778   0.183593   0.076143  -0.112818   0.237190
   15  C  3  Z    0.291713  -0.179674  -0.095338   0.092006  -0.292375
   16  C  4  S    0.043392  -0.000288   0.047384   0.111528  -0.010267
   17  C  4  S   -0.229957  -0.020684  -0.290856  -0.655892   0.075670
   18  C  4  X    0.410378   0.088890   0.080722  -0.116586  -0.111758
   19  C  4  Y    0.095206   0.281654  -0.061248  -0.552978  -0.163703
   20  C  4  Z    0.294480  -0.290426  -0.155549   0.067551   0.183141
   21  C  5  S    0.010264   0.043934   0.019024   0.002416  -0.050080
   22  C  5  S   -0.078887  -0.274510  -0.121443  -0.019903   0.314933
   23  C  5  X   -0.299114  -0.059807  -0.045669   0.014446   0.089031
   24  C  5  Y   -0.221180   0.267280   0.110307   0.086038  -0.234906
   25  C  5  Z   -0.143018  -0.200039  -0.157869   0.181254   0.221352
   26  C  6  S    0.040378   0.055072  -0.065055  -0.015301   0.006479
   27  C  6  S   -0.213916  -0.347937   0.377583   0.088994  -0.023834
   28  C  6  X    0.327761  -0.255403   0.129447  -0.160476   0.051357
   29  C  6  Y    0.160237   0.234029   0.390949   0.145016  -0.331342
   30  C  6  Z    0.358918   0.025151  -0.231800   0.047478   0.056417
   31  C  7  S   -0.015740   0.050689   0.021231   0.051257  -0.048322
   32  C  7  S    0.089699  -0.309311  -0.113773  -0.342904   0.288348
   33  C  7  X   -0.253191  -0.156595   0.185447  -0.141740   0.034079
   34  C  7  Y   -0.133760   0.041841   0.368021   0.090368  -0.201714
   35  C  7  Z   -0.142575   0.251326  -0.435384   0.194814   0.026059
   36  C  8  S    0.014585  -0.010836   0.023342   0.111048   0.000294
   37  C  8  S   -0.084975   0.041404  -0.120238  -0.683289   0.002747
   38  C  8  X    0.222366  -0.169697   0.322458   0.132389  -0.049329
   39  C  8  Y    0.040991  -0.101653   0.227220  -0.372292  -0.055234
   40  C  8  Z    0.193350   0.189672  -0.432255  -0.103302   0.071092
   41  C  9  S   -0.017884   0.090807  -0.088999  -0.128739  -0.018661
   42  C  9  S    0.102220  -0.535335   0.525818   0.757166   0.107769
   43  C  9  X   -0.270060  -0.018449   0.231962   0.156105  -0.080236
   44  C  9  Y   -0.139528   0.135531   0.051026  -0.435243  -0.126038
   45  C  9  Z   -0.165348   0.002814  -0.299789   0.069518   0.124402
   46  O 10  S    0.002662  -0.018910   0.013330   0.007189   0.003877
   47  O 10  S   -0.015601   0.118462  -0.079606  -0.029327  -0.025286
   48  O 10  X    0.140175   0.067414  -0.103563  -0.018226   0.007367
   49  O 10  Y    0.070636  -0.153062   0.034004   0.074814   0.063171
   50  O 10  Z    0.103353  -0.052461   0.113311  -0.055565  -0.026774
   51  H 11  S    0.069067   0.309071   0.174709   0.021066   0.463855
   52  H 12  S   -0.001947  -0.125794  -0.220053  -0.077982  -0.241242
   53  H 13  S   -0.041940   0.347790   0.258781  -0.030250   0.652126
   54  H 14  S    0.066285   0.273338   0.251929   0.035030   0.439593
   55  H 15  S   -0.011264  -0.215423  -0.043158   0.224868  -0.278436
   56  H 16  S    0.032559   0.311167   0.348937   0.244211  -0.261822
   57  H 17  S   -0.021330   0.517999   0.274546  -0.057337  -0.517360
   58  H 18  S    0.053282   0.538535  -0.087283   0.171750  -0.235240
   59  H 19  S   -0.003856   0.483286  -0.424415   0.398802  -0.138523
   60  H 20  S    0.085811   0.166077  -0.390566   0.656363   0.100527

                     46         47         48         49         50
                    0.6647     0.6976     0.7143     0.7259     0.7411
                     A          A          A          A          A   
    1  C  1  S    0.034337  -0.116272  -0.026700   0.126741  -0.066472
    2  C  1  S   -0.215384   0.739395   0.161510  -0.811017   0.419494
    3  C  1  X    0.124101   0.114424  -0.231287   0.176296   0.189220
    4  C  1  Y   -0.230434  -0.193783   0.194195  -0.432738  -0.043892
    5  C  1  Z    0.089809  -0.361430   0.115971   0.266382  -0.285337
    6  C  2  S   -0.010929   0.070770   0.062433  -0.014085  -0.006872
    7  C  2  S    0.064158  -0.431670  -0.387629   0.087346   0.069278
    8  C  2  X    0.057643   0.108452  -0.051835   0.241655   0.065647
    9  C  2  Y   -0.103758  -0.001030   0.056288  -0.156769  -0.030070
   10  C  2  Z   -0.085781  -0.056094   0.047559  -0.221204   0.016268
   11  C  3  S    0.001823  -0.088452  -0.122590  -0.090375  -0.066950
   12  C  3  S   -0.012254   0.553874   0.786086   0.581944   0.421463
   13  C  3  X    0.148837  -0.006260  -0.429607   0.072133  -0.101159
   14  C  3  Y    0.007867   0.096335   0.137947   0.298074   0.254866
   15  C  3  Z   -0.177361  -0.264116   0.153986  -0.425477  -0.064875
   16  C  4  S    0.013310  -0.024203  -0.045362   0.025306   0.130876
   17  C  4  S   -0.091067   0.154169   0.300341  -0.142207  -0.817990
   18  C  4  X    0.308234   0.247143   0.008597  -0.088761  -0.174853
   19  C  4  Y   -0.031767  -0.075399   0.028332  -0.055900   0.092880
   20  C  4  Z   -0.454868  -0.058111   0.207878   0.183510  -0.092390
   21  C  5  S    0.000276   0.056027   0.046780   0.001530  -0.146717
   22  C  5  S   -0.009031  -0.353621  -0.305983  -0.006375   0.935262
   23  C  5  X    0.259853   0.034437   0.003649  -0.100943  -0.138769
   24  C  5  Y   -0.044644  -0.107706   0.034920   0.035618   0.019134
   25  C  5  Z   -0.200306  -0.029022   0.034941   0.136314  -0.073369
   26  C  6  S    0.080143  -0.079932   0.031163  -0.051475   0.115974
   27  C  6  S   -0.479154   0.509668  -0.192353   0.304463  -0.728616
   28  C  6  X    0.027300   0.347659  -0.256456  -0.082125  -0.125960
   29  C  6  Y   -0.484715  -0.099339   0.025568   0.174868   0.174559
   30  C  6  Z   -0.035067  -0.012866   0.264450  -0.027429  -0.182107
   31  C  7  S   -0.120853   0.061857  -0.085965   0.052981  -0.026096
   32  C  7  S    0.744748  -0.409208   0.547817  -0.325639   0.161110
   33  C  7  X    0.145651  -0.138672  -0.025311  -0.005012   0.116038
   34  C  7  Y   -0.256843   0.014194   0.078375   0.162237  -0.135769
   35  C  7  Z    0.019269  -0.006964  -0.004618   0.054493  -0.071893
   36  C  8  S    0.091390  -0.003979   0.106833  -0.003641  -0.043151
   37  C  8  S   -0.551706   0.011715  -0.682782   0.019341   0.287557
   38  C  8  X    0.026293   0.072930   0.048952   0.048073  -0.065459
   39  C  8  Y   -0.153866  -0.229067   0.056596   0.031343   0.087278
   40  C  8  Z   -0.039732   0.071405  -0.073616  -0.095578   0.008166
   41  C  9  S    0.005064   0.028058  -0.048588  -0.040350  -0.023977
   42  C  9  S   -0.042765  -0.182639   0.293131   0.242763   0.143193
   43  C  9  X    0.233139   0.008038   0.130288  -0.039400  -0.144698
   44  C  9  Y    0.032119  -0.105633   0.169292  -0.083024  -0.163000
   45  C  9  Z   -0.266029  -0.114421  -0.327714  -0.003485   0.254624
   46  O 10  S   -0.017013  -0.020918   0.011316   0.007642   0.010135
   47  O 10  S    0.120896   0.143783  -0.074666  -0.050705  -0.069275
   48  O 10  X    0.026299   0.104669  -0.079809  -0.018381  -0.005921
   49  O 10  Y   -0.183073  -0.140613   0.015579   0.068762   0.123381
   50  O 10  Z    0.006085  -0.036347   0.133653   0.018679  -0.050449
   51  H 11  S   -0.112422  -0.651420   0.182806   0.042611  -0.388249
   52  H 12  S    0.322724  -0.426009  -0.128337   0.860158  -0.323848
   53  H 13  S   -0.083302   0.285471   0.225509  -0.044211  -0.021833
   54  H 14  S    0.220458  -0.092046  -0.733784   0.089451  -0.202229
   55  H 15  S   -0.088703  -0.457877  -0.429740  -0.737274  -0.415933
   56  H 16  S    0.581434   0.083233  -0.285548  -0.112406   0.403600
   57  H 17  S    0.041796   0.117248   0.148205  -0.032475  -0.392545
   58  H 18  S   -0.089097  -0.534348   0.327907  -0.001694   0.513236
   59  H 19  S   -0.468325   0.289012  -0.261260   0.173243  -0.188762
   60  H 20  S    0.420358   0.199370   0.256463  -0.082551  -0.185349

                     51         52         53         54         55
                    0.7566     0.7867     0.8227     0.8762     0.8828
                     A          A          A          A          A   
    1  C  1  S    0.067794   0.037195  -0.025592   0.010188   0.023128
    2  C  1  S   -0.437991  -0.232697   0.158996  -0.071049  -0.168479
    3  C  1  X   -0.243520   0.258522  -0.172123   0.038367   0.162283
    4  C  1  Y    0.367344   0.235539  -0.168447  -0.144263   0.111470
    5  C  1  Z    0.235648  -0.434018   0.339389   0.057421  -0.104725
    6  C  2  S   -0.024349  -0.164976   0.110685   0.012979   0.001673
    7  C  2  S    0.160342   1.092149  -0.740489  -0.088146  -0.011588
    8  C  2  X   -0.050793   0.169107  -0.137425   0.017830   0.244132
    9  C  2  Y    0.029925  -0.037373   0.015596   0.178677  -0.191094
   10  C  2  Z    0.092948   0.233033  -0.157232  -0.103611  -0.235090
   11  C  3  S   -0.056032   0.053358  -0.020938   0.006693  -0.023377
   12  C  3  S    0.360539  -0.335199   0.131505  -0.052872   0.168397
   13  C  3  X   -0.403727  -0.157339   0.135582   0.005225   0.033434
   14  C  3  Y    0.174013   0.492257  -0.405683  -0.063327  -0.235011
   15  C  3  Z    0.350613  -0.021633   0.040139   0.092164  -0.055934
   16  C  4  S    0.054549  -0.053851  -0.012662   0.033277  -0.082731
   17  C  4  S   -0.344977   0.339161   0.082676  -0.236445   0.574189
   18  C  4  X    0.188567  -0.097069  -0.033475  -0.416681   0.170871
   19  C  4  Y   -0.050046   0.318168   0.490457   0.281240  -0.364322
   20  C  4  Z   -0.276152   0.043403  -0.127592   0.304311   0.399177
   21  C  5  S   -0.033058  -0.046114  -0.118381  -0.058172   0.003199
[...]
 18   H            X -0.01896857  0.01543326  0.03271553 -0.01751747 -0.00451168
                   Y -0.11448879  0.01514350 -0.01490798 -0.08825036 -0.01919912
                   Z  0.00596547  0.00278969  0.00833097  0.03734445  0.00374937
 19   H            X  0.01102571 -0.00058769  0.00480754 -0.04848763 -0.01199030
                   Y -0.06864900  0.00369462 -0.02249851 -0.14356625 -0.02756034
                   Z  0.01607892 -0.00072680 -0.00273780  0.09948871  0.02190188
 20   H            X  0.00020912 -0.00016652  0.00063738 -0.05783385 -0.06178207
                   Y  0.01417821 -0.00051585  0.00597795 -0.06595994  0.01022165
                   Z -0.00998235 -0.00125031 -0.01559142  0.10828471  0.07473113

 TRANS. SAYVETZ    X -0.00000278  0.00000084  0.00000269 -0.00000129 -0.00000272
                   Y  0.00000048  0.00000169 -0.00000020 -0.00000158  0.00000156
                   Z  0.00000285  0.00000191 -0.00000143  0.00000058  0.00000266
               TOTAL  0.00000401  0.00000269  0.00000305  0.00000212  0.00000412

   ROT. SAYVETZ    X -0.00000776 -0.00022103 -0.00000566 -0.00004270  0.00001799
                   Y  0.00009429  0.00005264  0.00011539  0.00001084 -0.00000225
                   Z -0.00006096 -0.00002767 -0.00004661 -0.00001113  0.00001309
               TOTAL  0.00011255  0.00022888  0.00012458  0.00004544  0.00002236

                           51          52          53          54          55
       FREQUENCY:      3630.08     3634.32     3686.09     3693.06     3695.66  
        SYMMETRY:         A           A           A           A           A   
    REDUCED MASS:      1.06267     1.06462     1.09101     1.09411     1.09590
    IR INTENSITY:      0.09887     0.07246     0.19344     0.04549     0.14155

  1   C            X  0.02391198  0.01250635 -0.00282785 -0.00003928  0.00474452
                   Y -0.00695559 -0.00359904 -0.00103365  0.00107809  0.00400064
                   Z -0.05451442 -0.03030330  0.00569922 -0.00169663 -0.00910261
  2   C            X -0.00147010 -0.00443307  0.00326702 -0.00166230 -0.01467834
                   Y  0.00811771  0.00083611  0.01550697 -0.00910210 -0.07092426
                   Z -0.00408078  0.00571486 -0.00774749  0.00424134  0.03534503
  3   C            X -0.02249510  0.04405106  0.00330389 -0.00114405 -0.00379567
                   Y  0.02149180 -0.04159638 -0.00564516  0.00198000  0.01024337
                   Z  0.00380039 -0.00597236  0.00049613  0.00108386 -0.00111572
  4   C            X  0.00107301 -0.00144100  0.02433672  0.02373515  0.00508270
                   Y  0.00028896  0.00032080  0.00041007 -0.00168208 -0.00041792
                   Z -0.00302851  0.00075890 -0.05210851 -0.04819626 -0.00891929
  5   C            X  0.00039689  0.00018570  0.00319053 -0.00416915  0.00041222
                   Y -0.00302151  0.00077675 -0.03200572  0.00811838 -0.00123246
                   Z  0.00213203 -0.00099877  0.02468846 -0.00138068  0.00056024
  6   C            X -0.00227328  0.00086957 -0.02835048  0.04525113 -0.01442627
                   Y  0.00222884 -0.00042939  0.02592799 -0.03915789  0.01264536
                   Z  0.00072843  0.00087913  0.00635491 -0.01237365  0.00487708
  7   C            X  0.00066862  0.00001403  0.00491547 -0.01068249  0.00498733
                   Y  0.00018151  0.00010703 -0.00101491  0.00152123 -0.00045288
                   Z -0.00011638  0.00007100 -0.00587795  0.01286233 -0.00612607
  8   C            X -0.00000092 -0.00003033 -0.00086293  0.00174840 -0.00078621
                   Y -0.00044928  0.00019532 -0.00277730  0.00686146 -0.00291943
                   Z  0.00025919  0.00001550  0.00170810 -0.00408978  0.00181927
  9   C            X  0.00021513 -0.00016159 -0.00035708 -0.00054929 -0.00002351
                   Y -0.00004900 -0.00014794 -0.00103441 -0.00144489 -0.00016267
                   Z  0.00028102 -0.00021329  0.00065465  0.00106059  0.00001307
 10   O            X -0.00000151 -0.00003082  0.00000741  0.00000336  0.00000050
                   Y -0.00000703  0.00003057  0.00006120  0.00022364  0.00004067
                   Z -0.00001589 -0.00000592 -0.00004799 -0.00008546  0.00001324
 11   H            X -0.23050308 -0.12417476  0.01756740 -0.00267441 -0.01384557
                   Y  0.51604080  0.27737459 -0.03456655  0.00444201  0.02605942
                   Z  0.20299600  0.10867865 -0.01321919  0.00189800  0.01031997
 12   H            X -0.00822822 -0.00407044  0.00235994 -0.00010967  0.00075310
                   Y -0.43736818 -0.23792760  0.04567716 -0.01630716 -0.06810818
                   Z  0.40071081  0.21955229 -0.03961269  0.01462211  0.06075949
 13   H            X -0.02339852  0.00491258 -0.03090564  0.01820681  0.14520185
                   Y -0.12435900  0.03868421 -0.17066950  0.09931222  0.78995291
                   Z  0.06585570 -0.01783471  0.08968057 -0.05193986 -0.41295380
 14   H            X  0.23111451 -0.43721752 -0.02659203  0.00895779  0.01860873
                   Y  0.03443810 -0.06541426 -0.00323684  0.00109850  0.00144354
                   Z -0.20442391  0.38767644  0.02583885 -0.00901018 -0.01846210
 15   H            X  0.02401550 -0.04843581 -0.00307703  0.00083882  0.00627302
                   Y -0.26530704  0.51008027  0.05511183 -0.01213087 -0.07593483
                   Z  0.17621326 -0.33887145 -0.03495483  0.00799675  0.05312457
 16   H            X -0.01453446  0.00435070 -0.27160606 -0.25162520 -0.04768498
                   Y  0.00084992 -0.00036544  0.00719989  0.00752640  0.00123332
                   Z  0.03644990 -0.01110654  0.59490055  0.54727544  0.10172778
 17   H            X -0.00398723  0.00119152 -0.04880584  0.00981538 -0.00236222
                   Y  0.03494895 -0.01096510  0.37603405 -0.06975523  0.01757293
                   Z -0.02600680  0.00826659 -0.28509033  0.05135475 -0.01324798
 18   H            X  0.02946406 -0.01050828  0.33191029 -0.51360957  0.16269887
                   Y -0.02367051  0.00833431 -0.28664772  0.44360484 -0.14135269
                   Z -0.00571971  0.00176700 -0.07960447  0.12522178 -0.04078988
 19   H            X -0.00464926  0.00066044 -0.05405754  0.11806063 -0.05500240
                   Y -0.00070328 -0.00019643 -0.00216035  0.00475464 -0.00218981
                   Z  0.00645749 -0.00080915  0.06960176 -0.15095186  0.07044621
 20   H            X  0.00041805 -0.00014444  0.00432024 -0.01288115  0.00542866
                   Y  0.00527437 -0.00170471  0.03212321 -0.08712542  0.03673498
                   Z -0.00289527  0.00055593 -0.01562440  0.04223797 -0.01772876

 TRANS. SAYVETZ    X -0.00000001 -0.00000062 -0.00000169 -0.00000020  0.00000032
                   Y -0.00000054  0.00000049 -0.00000169  0.00000114  0.00000003
                   Z -0.00000163  0.00000072 -0.00000070 -0.00000045  0.00000091
               TOTAL  0.00000172  0.00000107  0.00000249  0.00000124  0.00000097

   ROT. SAYVETZ    X -0.00002286  0.00000901 -0.00000728  0.00000379 -0.00000547
                   Y -0.00000046 -0.00003087  0.00001408  0.00003302  0.00000277
                   Z  0.00002675 -0.00000530  0.00000999 -0.00002695  0.00000732
               TOTAL  0.00003519  0.00003260  0.00001874  0.00004279  0.00000955

                           56          57          58          59          60
       FREQUENCY:      3704.05     3712.80     3736.28     3777.40     3780.01  
        SYMMETRY:         A           A           A           A           A   
    REDUCED MASS:      1.09133     1.10022     1.10603     1.11642     1.11674
    IR INTENSITY:      0.55031     0.10234     0.06835     0.00320     0.01482

  1   C            X -0.00065640 -0.00068816  0.00010932  0.02025770  0.00760528
                   Y  0.00051897  0.00172786 -0.00038928 -0.08419349 -0.03057869
                   Z  0.00032505 -0.00074502  0.00013031  0.01768872  0.00594321
  2   C            X  0.00116035 -0.00180852  0.00001021 -0.00118460 -0.00084215
                   Y  0.00477547 -0.00769190  0.00006642 -0.00155376 -0.00498900
                   Z -0.00240131  0.00361708 -0.00001224  0.00154937  0.00180576
  3   C            X  0.00015553  0.00030220  0.00001076  0.01300367 -0.03671618
                   Y -0.00041486  0.00098780 -0.00025693  0.01764202 -0.04777924
                   Z  0.00039247 -0.00154893  0.00021816 -0.02343457  0.06467115
  4   C            X  0.00444150 -0.01471050  0.00127306  0.00009711 -0.00015489
                   Y -0.00082439  0.00338151 -0.00007588 -0.00007588  0.00031445
                   Z -0.00818539  0.02441932 -0.00214650  0.00003020  0.00082657
  5   C            X -0.00276037  0.00938983 -0.00061557 -0.00002958  0.00014490
                   Y  0.01258414 -0.05613550  0.00383733 -0.00029803 -0.00058213
                   Z -0.00864613  0.04523710 -0.00307764  0.00034266  0.00049936
  6   C            X  0.01103292  0.02633187 -0.00318347  0.00070284  0.00074475
                   Y -0.01210862 -0.02208512  0.00448322 -0.00014839 -0.00032699
                   Z -0.00131985 -0.01076402  0.00039606 -0.00018621 -0.00010810
  7   C            X  0.04200148  0.00303906 -0.03149270  0.00025294  0.00022225
                   Y  0.00235585  0.00193488  0.00593858 -0.00012027 -0.00013785
                   Z -0.05346805 -0.00445569  0.03736914 -0.00066411 -0.00041827
  8   C            X -0.00771641 -0.00125139 -0.00507520 -0.00007899 -0.00013833
                   Y -0.03530150 -0.00972169 -0.06946572 -0.00008307  0.00011396
                   Z  0.01986636  0.00444473  0.02711512 -0.00002063 -0.00000774
  9   C            X  0.00076744  0.00019122  0.00148859 -0.00001102 -0.00012799
                   Y  0.00065728  0.00105445  0.00002995  0.00003669 -0.00002040
                   Z -0.00117843 -0.00052253 -0.00187703  0.00009234 -0.00015563
 10   O            X -0.00005002  0.00004059 -0.00021809  0.00001485 -0.00002606
                   Y -0.00016976 -0.00018683  0.00014040 -0.00000332  0.00000400
                   Z  0.00010787  0.00000835  0.00023724 -0.00000581 -0.00001494
 11   H            X  0.00309354  0.00429646 -0.00084030 -0.23938633 -0.08699938
                   Y -0.00631709 -0.00882550  0.00221628  0.53557329  0.19520416
                   Z -0.00246720 -0.00335519  0.00079563  0.21515936  0.07803407
 12   H            X -0.00037753  0.00062497 -0.00043081  0.00735110  0.00297951
                   Y  0.00052363 -0.01097301  0.00288157  0.45740804  0.16385925
                   Z -0.00092766  0.00972951 -0.00277455 -0.42707374 -0.15286537
 13   H            X -0.00997799  0.01583908  0.00004682  0.00763971  0.01067413
                   Y -0.05389328  0.08550147 -0.00046171  0.02311481  0.05712549
                   Z  0.02796144 -0.04457687  0.00022543 -0.01461784 -0.02689289
 14   H            X -0.00004093 -0.00686028  0.00047876 -0.17374381  0.47946238
                   Y -0.00015025 -0.00081188  0.00000956 -0.02435243  0.06818293
                   Z -0.00001537  0.00657170 -0.00040539  0.15231561 -0.42042911
 15   H            X -0.00012025  0.00092566 -0.00000281  0.01918701 -0.05167426
                   Y  0.00445372 -0.01097944  0.00292732 -0.18486825  0.50382624
                   Z -0.00323142  0.00829511 -0.00183644  0.12339058 -0.33515875
 16   H            X -0.04215050  0.12681685 -0.00961594 -0.00085284  0.00520373
                   Y  0.00092975 -0.00451211  0.00042273  0.00018233 -0.00049123
                   Z  0.09161043 -0.27235412  0.02085849  0.00199441 -0.01244151
 17   H            X  0.01971294 -0.08522922  0.00585437 -0.00036516 -0.00089668
                   Y -0.13952458  0.63037449 -0.04015479  0.00353620  0.00680973
                   Z  0.10592418 -0.48123612  0.03065215 -0.00279368 -0.00504344
 18   H            X -0.13424367 -0.28291040  0.03928912 -0.00923344 -0.00712544
                   Y  0.11816889  0.24510040 -0.03541546  0.00726919  0.00596287
                   Z  0.03141851  0.07111122 -0.00935718  0.00182620  0.00152707
 19   H            X -0.47635463 -0.03809407  0.31030864 -0.00425579 -0.00288569
                   Y -0.02568406 -0.00322911  0.01470088  0.00005983 -0.00003888
                   Z  0.60611209  0.04849632 -0.39377084  0.00501283  0.00330771
 20   H            X  0.06465288  0.01633658  0.10458177  0.00037866  0.00009703
                   Y  0.43469293  0.11182796  0.71543131  0.00125004 -0.00049847
                   Z -0.20780224 -0.05343885 -0.34012189 -0.00032354  0.00033030

 TRANS. SAYVETZ    X  0.00000069 -0.00000055  0.00000003 -0.00000000 -0.00000001
                   Y -0.00000007 -0.00000069  0.00000015 -0.00000011 -0.00000014
                   Z -0.00000007 -0.00000086  0.00000054  0.00000008  0.00000005
               TOTAL  0.00000070  0.00000123  0.00000056  0.00000014  0.00000015

   ROT. SAYVETZ    X -0.00001120  0.00000350  0.00000004 -0.00001588  0.00000703
                   Y  0.00002144 -0.00000213 -0.00000929 -0.00001518  0.00001012
                   Z -0.00001265 -0.00001331  0.00000419  0.00001710 -0.00000554
               TOTAL  0.00002730  0.00001393  0.00001019  0.00002784  0.00001351

 REFERENCE ON SAYVETZ CONDITIONS - A. SAYVETZ, J.CHEM.PHYS., 7, 383-389(1939).

 NOTE - THE MODES J,K ARE ORTHONORMALIZED ACCORDING TO
 SUM ON I   M(I) * (X(I,J)*X(I,K) + Y(I,J)*Y(I,K) + Z(I,J)*Z(I,K)) = DELTA(J,K)

  MODE FREQ(CM**-1)  SYMMETRY  RED. MASS  IR INTENS.
     1    1060.366    A        9.324672    0.064327
     2       0.150    A        6.502157    0.000134
     3       0.071    A        6.691859    0.000000
     4       0.007    A        6.704054    0.000000
     5       1.509    A        4.891773    0.013472
     6       5.045    A        4.941439    0.004040
     7       6.236    A        4.644394    0.010839
     8     104.129    A        4.138069    0.029765
     9     203.670    A        3.551377    0.016626
    10     265.246    A        4.167052    0.030692
    11     381.413    A        5.277058    0.035429
    12     437.613    A        2.307278    0.075447
    13     465.617    A        3.414139    0.109586
    14     493.043    A        3.992216    0.077135
    15     506.440    A        4.789740    0.105014
    16     552.686    A        1.961640    0.248734
    17     575.844    A        2.545802    0.264902
    18     610.978    A        4.901182    0.016011
    19     677.216    A        5.711250    0.076617
    20     840.260    A        3.287480    0.033037
    21     851.563    A        4.186013    0.032904
    22     926.856    A        1.667084    2.621682
    23     938.109    A        1.761272    0.121183
    24     964.340    A        1.772486    0.902808
    25    1004.118    A        1.456941    0.150403
    26    1040.444    A        1.586994    0.061896
    27    1092.367    A        1.590191    0.228107
    28    1119.736    A        2.732685    0.001836
    29    1166.736    A        2.141524    0.057046
    30    1209.133    A        1.282450    0.003083
    31    1214.218    A        1.508118    0.090263
    32    1240.834    A        1.141085    0.082525
    33    1270.217    A        1.287366    0.408612
    34    1301.612    A        1.134613    0.247636
    35    1318.496    A        1.219222    0.093696
    36    1341.284    A        1.231508    0.051316
    37    1365.533    A        1.156042    0.010773
    38    1386.068    A        1.275970    0.048826
    39    1418.708    A        1.831275    0.674002
    40    1471.058    A        1.323609    0.088144
    41    1488.626    A        1.670938    0.001690
    42    1599.389    A        1.598208    0.164868
    43    1637.161    A        1.712705    0.166614
    44    1668.014    A        1.524687    0.029343
    45    1718.728    A        2.486341    0.476508
    46    1758.373    A        1.912214    0.035429
    47    1813.503    A        1.256193    0.224289
    48    1856.577    A        2.349655    0.040072
    49    2009.744    A        7.078383    0.062092
    50    2080.653    A       10.639091    1.818293
    51    3630.078    A        1.062666    0.098868
    52    3634.317    A        1.064621    0.072458
    53    3686.085    A        1.091014    0.193444
    54    3693.056    A        1.094113    0.045485
    55    3695.663    A        1.095900    0.141553
    56    3704.053    A        1.091326    0.550311
    57    3712.802    A        1.100222    0.102336
    58    3736.281    A        1.106027    0.068346
    59    3777.402    A        1.116417    0.003199
    60    3780.007    A        1.116742    0.014824

     -------------------------------
     THERMOCHEMISTRY AT T=  298.15 K
     -------------------------------

 USING IDEAL GAS, RIGID ROTOR, HARMONIC NORMAL MODE APPROXIMATIONS.
 P=  1.01325E+05 PASCAL.
 ALL FREQUENCIES ARE SCALED BY   1.00000
 THE MOMENTS OF INERTIA ARE (IN AMU*BOHR**2)
            852.45992          1312.32432          1651.70378
 THE ROTATIONAL SYMMETRY NUMBER IS  1.0
 THE ROTATIONAL CONSTANTS ARE (IN GHZ)
      2.11516     1.37397     1.09165
   1 IMAGINARY FREQUENCY VIBRATION(S) IS(ARE) EXCLUDED
     FROM THE FOLLOWING THERMOCHEMICAL ANALYSIS.
      8 -     60 VIBRATIONAL MODES ARE USED IN THERMOCHEMISTRY.
 THE HARMONIC ZERO POINT ENERGY IS (SCALED BY   1.000)
        0.192360 HARTREE/MOLECULE    42218.048790 CM**-1/MOLECULE 
      120.707580 KCAL/MOL              505.040514 KJ/MOL

               Q               LN Q
 ELEC.     1.00000E+00       0.000000
 TRANS.    6.10192E+07      17.926699
 ROT.      4.86592E+05      13.095181
 VIB.      1.44466E+01       2.670460
 TOT.      4.28941E+14      33.692340

              E         H         G         CV        CP        S
           KJ/MOL    KJ/MOL    KJ/MOL   J/MOL-K   J/MOL-K   J/MOL-K
 ELEC.      0.000     0.000     0.000     0.000     0.000     0.000
 TRANS.     3.718     6.197   -44.439    12.472    20.786   169.836
 ROT.       3.718     3.718   -32.462    12.472    12.472   121.350
 VIB.     516.151   516.151   498.421    93.000    93.000    59.469
 TOTAL    523.588   526.067   421.519   117.943   126.257   350.655
 VIB. THERMAL CORRECTION E(T)-E(0) = H(T)-H(0) =     11110.727 J/MOL

              E         H         G         CV        CP        S
         KCAL/MOL  KCAL/MOL  KCAL/MOL CAL/MOL-K CAL/MOL-K CAL/MOL-K
 ELEC.      0.000     0.000     0.000     0.000     0.000     0.000
 TRANS.     0.889     1.481   -10.621     2.981     4.968    40.592
 ROT.       0.889     0.889    -7.759     2.981     2.981    29.003
 VIB.     123.363   123.363   119.125    22.227    22.227    14.213
 TOTAL    125.141   125.733   100.746    28.189    30.176    83.809
 VIB. THERMAL CORRECTION E(T)-E(0) = H(T)-H(0) =      2655.528 CAL/MOL
 ......END OF NORMAL COORDINATE ANALYSIS......
 STEP CPU TIME =     0.02 TOTAL CPU TIME =         69.6 (      1.2 MIN)
 TOTAL WALL CLOCK TIME=         69.8 SECONDS, CPU UTILIZATION IS    99.78%
               580000  WORDS OF DYNAMIC MEMORY USED
 EXECUTION OF GAMESS TERMINATED NORMALLY Fri Nov 12 21:24:26 2021
 DDI: 263640 bytes (0.3 MB / 0 MWords) used by master data server.

 ----------------------------------------
 CPU timing information for all processes
 ========================================
 0: 68.832 + 0.780 = 69.613
 ----------------------------------------
 ddikick.x: exited gracefully.
----- accounting info -----
Files used on the master node chemcompute-node-0.novalocal were:
-rw-r--r--. 1 chemcomp chemcomp     1517 Nov 12 21:23 /scratch/305552/341413.F05
-rw-rw-r--. 1 chemcomp chemcomp 18001600 Nov 12 21:23 /scratch/305552/341413.F08
-rw-rw-r--. 1 chemcomp chemcomp 70451200 Nov 12 21:24 /scratch/305552/341413.F10
-rw-rw-r--. 1 chemcomp chemcomp   878880 Nov 12 21:24 /scratch/305552/341413.F18
Fri Nov 12 21:24:29 UTC 2021
0.122u 0.095s 1:13.27 0.2%	0+0k 8+216io 0pf+0w
Finishing Up...
Looking for IR data...
Looking for Raman data...
vibramans not found
Looking for thermodynamics data...
Looking for UV-Vis data...
305552
