----- GAMESS execution script 'rungms' -----
This job is running on host chemcompute-node-0.novalocal
under operating system Linux at Sat Nov 13 00:25:57 UTC 2021
SLURM has assigned the following compute nodes to this run:
chemcompute-node-0
Available scratch disk space (Kbyte units) at beginning of the job is
Filesystem     1K-blocks     Used Available Use% Mounted on
/dev/sda1       62903276 16697256  46206020  27% /
GAMESS temporary binary files will be written to /scratch/305581
GAMESS supplementary output files will be written to /data/slurm/341450
Copying input file 341450.inp to your run's scratch directory...
The generated host list is
chemcompute-node-0.novalocal

 Distributed Data Interface kickoff program.
 Initiating 1 compute processes on 1 nodes to run the following command:
 /data/gamess-2019R1-ddi/gamess.00.x 341450 

          ******************************************************
          *         GAMESS VERSION = 30 JUN 2019 (R1)          *
          *             FROM IOWA STATE UNIVERSITY             *
          * M.W.SCHMIDT, K.K.BALDRIDGE, J.A.BOATZ, S.T.ELBERT, *
          *   M.S.GORDON, J.H.JENSEN, S.KOSEKI, N.MATSUNAGA,   *
          *          K.A.NGUYEN, S.J.SU, T.L.WINDUS,           *
          *       TOGETHER WITH M.DUPUIS, J.A.MONTGOMERY       *
          *         J.COMPUT.CHEM.  14, 1347-1363(1993)        *
          **************** 64 BIT LINUX VERSION ****************

  SINCE 1993, STUDENTS AND POSTDOCS WORKING AT IOWA STATE UNIVERSITY
  AND ALSO IN THEIR VARIOUS JOBS AFTER LEAVING ISU HAVE MADE IMPORTANT
  CONTRIBUTIONS TO THE CODE:
     IVANA ADAMOVIC, CHRISTINE AIKENS, YURI ALEXEEV, POOJA ARORA,
     ANDREY ASADCHEV, ROB BELL, PRADIPTA BANDYOPADHYAY, JONATHAN BENTZ,
     COLLEEN BERTONI, BRETT BODE, KURT BRORSEN, CALEB CARLIN, GALINA CHABAN,
     WEI CHEN, CHEOL HO CHOI, PAUL DAY, ALBERT DEFUSCO, NUWAN DESILVA,
     TIM DUDLEY, DMITRI FEDOROV, ALEX FINDLATER, GRAHAM FLETCHER, 
     MARK FREITAG, KURT GLAESEMANN, ANASTASIA GUNINA,
     DAN KEMP, GRANT MERRILL, NORIYUKI MINEZAWA, JONATHAN MULLIN,
     TAKESHI NAGATA, SEAN NEDD, HEATHER NETZLOFF, BOSILJKA NJEGIC, RYAN OLSON,
     MIKE PAK, BUU PHAM,
     SPENCER PRUITT, LUKE ROSKOP, JIM SHOEMAKER, LYUDMILA SLIPCHENKO,
     TONY SMITH, SAROM SOK LEANG, JIE SONG, TETSUYA TAKETSUGU, SIMON WEBB,
     PENG XU, SOOHAENG YOO, FEDERICO ZAHARIEV

  ADDITIONAL CODE HAS BEEN PROVIDED BY COLLABORATORS IN OTHER GROUPS:
     IOWA STATE UNIVERSITY:
          JOE IVANIC, AARON WEST, LAIMUTIS BYTAUTAS, KLAUS RUEDENBERG
     UNIVERSITY OF TOKYO: KIMIHIKO HIRAO, TAKAHITO NAKAJIMA,
          TAKAO TSUNEDA, MUNEAKI KAMIYA, SUSUMU YANAGISAWA,
          KIYOSHI YAGI, MAHITO CHIBA, SEIKEN TOKURA, NAOAKI KAWAKAMI
     UNIVERSITY OF AARHUS: FRANK JENSEN
     UNIVERSITY OF IOWA: VISVALDAS KAIRYS, HUI LI
     NATIONAL INST. OF STANDARDS AND TECHNOLOGY: WALT STEVENS, DAVID GARMER
     UNIVERSITY OF PISA: BENEDETTA MENNUCCI, JACOPO TOMASI
     UNIVERSITY OF MEMPHIS: HENRY KURTZ, PRAKASHAN KORAMBATH
     UNIVERSITY OF ALBERTA: TOBY ZENG, MARIUSZ KLOBUKOWSKI
     UNIVERSITY OF NEW ENGLAND: MARK SPACKMAN
     MIE UNIVERSITY: HIROAKI UMEDA
     NAT. INST. OF ADVANCED INDUSTRIAL SCIENCE AND TECHNOLOGY: KAZUO KITAURA
     MICHIGAN STATE UNIVERSITY:
          KAROL KOWALSKI, MARTA WLOCH, JEFFREY GOUR, JESSE LUTZ,
          WEI LI, JUN SHEN, J. EMILIANO DEUSTUA, PIOTR PIECUCH
     UNIVERSITY OF MINNESOTA:
          YINAN SHU
     UNIVERSITY OF SILESIA: MONIKA MUSIAL, STANISLAW KUCHARSKI
     FACULTES UNIVERSITAIRES NOTRE-DAME DE LA PAIX:
          OLIVIER QUINET, BENOIT CHAMPAGNE
     UNIVERSITY OF CALIFORNIA - SANTA BARBARA: BERNARD KIRTMAN
     INSTITUTE FOR MOLECULAR SCIENCE:
          KAZUYA ISHIMURA, MICHIO KATOUDA, AND SHIGERU NAGASE
     UNIVERSITY OF NOTRE DAME: ANNA POMOGAEVA, DAN CHIPMAN
     KYUSHU UNIVERSITY:
          HARUYUKI NAKANO,
          FENG LONG GU, JACEK KORCHOWIEC, MARCIN MAKOWSKI, AND YURIKO AOKI,
          HIROTOSHI MORI AND EISAKU MIYOSHI
     PENNSYLVANIA STATE UNIVERSITY:
          TZVETELIN IORDANOV, CHET SWALINA, JONATHAN SKONE,
          SHARON HAMMES-SCHIFFER
     WASEDA UNIVERSITY:
          MASATO KOBAYASHI, TOMOKO AKAMA, TSUGUKI TOUMA,
          TAKESHI YOSHIKAWA, YASUHIRO IKABATA, JUNJI SEINO,
          YUYA NAKAJIMA, HIROMI NAKAI
     NANJING UNIVERSITY: SHUHUA LI
     UNIVERSITY OF NEBRASKA:
          PEIFENG SU, DEJUN SI, NANDUN THELLAMUREGE, YALI WANG, HUI LI
     UNIVERSITY OF ZURICH: ROBERTO PEVERATI, KIM BALDRIDGE
     N. COPERNICUS UNIVERSITY AND JACKSON STATE UNIVERSITY:
          MARIA BARYSZ
     UNIVERSITY OF COPENHAGEN: Jimmy Kromann, CASPER STEINMANN
     TOKYO INSTITUTE OF TECHNOLOGY: HIROYA NAKATA
     NAGOYA UNIVERSITY: YOSHIO NISHIMOTO, STEPHAN IRLE
     MOSCOW STATE UNIVERSITY: VLADIMIR MIRONOV
     A.N.NESMEYANOV INSTITUTE OF ORGANOELEMENT COMPOUNDS OF RUSSIAN ACADEMY OF SCIENCES:
          IGOR S. GERASIMOV

 EXECUTION OF GAMESS BEGUN Sat Nov 13 00:25:57 2021

            ECHO OF THE FIRST FEW INPUT CARDS -
 INPUT CARD>!File created by the GAMESS Input Deck Generator Plugin for Avogadro            
 INPUT CARD> $BASIS GBASIS=STO NGAUSS=3 $END                                                
 INPUT CARD> $CONTRL SCFTYP=RHF RUNTYP=SADPOINT $END                                        
 INPUT CARD> $STATPT hssend=.t. OPTTOL=0.0005 NSTEP=50 $END                                 
 INPUT CARD> $STATPT HESS=calc ihrep=5 $END                                                 
 INPUT CARD> $FORCE nvib=2 $END                                                             
 INPUT CARD> $ZMAT DLC=.t. auto=.t. nonvdw(1)=6,14,9,15 $END                                
 INPUT CARD>!$ZMAT IFZMAT(1)=1,6,14,1,9,15 fvalue(1)=1.50,1.50 $END                         
 INPUT CARD>                                                                                
 INPUT CARD> $DATA                                                                          
 INPUT CARD>Title                                                                           
 INPUT CARD>C1                                                                              
 INPUT CARD>C     6.0    -0.91958326     2.00453091     0.01158517                          
 INPUT CARD>C     6.0     0.27639002     1.02872515     0.14230740                          
 INPUT CARD>C     6.0    -2.18197489     1.10289550     0.00298287                          
 INPUT CARD>H     1.0    -0.84284610     2.54579687    -0.92892766                          
 INPUT CARD>H     1.0    -0.93352216     2.73414540     0.81732321                          
 INPUT CARD>C     6.0    -1.72647643    -0.25430745    -0.59325618                          
 INPUT CARD>H     1.0    -2.97755384     1.54957354    -0.58770311                          
 INPUT CARD>H     1.0    -2.55544782     0.97467244     1.01572406                          
 INPUT CARD>C     6.0    -0.21412960    -0.23843111    -0.58574319                          
 INPUT CARD>H     1.0     0.48378959     0.81594020     1.18818033                          
 INPUT CARD>H     1.0     1.18622661     1.41298473    -0.31227794                          
 INPUT CARD>H     1.0    -2.14752722    -0.44670516    -1.57115746                          
 INPUT CARD>H     1.0     0.32039937    -0.58246040    -1.46895599                          
 INPUT CARD>B     5.0    -1.47426295    -1.43461728     0.29739362                          
 INPUT CARD>H     1.0     0.01794594    -1.40840006     0.32382461                          
 INPUT CARD>H     1.0    -1.57779658    -1.29407489     1.44156277                          
 INPUT CARD>H     1.0    -1.55661035    -2.49536443    -0.15721157                          
 INPUT CARD> $END                                                                           
    1000000 WORDS OF MEMORY AVAILABLE

     BASIS OPTIONS
     -------------
     GBASIS=STO          IGAUSS=       3      POLAR=NONE    
     NDFUNC=       0     NFFUNC=       0     DIFFSP=       F
     NPFUNC=       0      DIFFS=       F     BASNAM=        


     RUN TITLE
     ---------
 Title                                                                           

 THE POINT GROUP OF THE MOLECULE IS C1      
 THE ORDER OF THE PRINCIPAL AXIS IS     0

 ATOM      ATOMIC                      COORDINATES (BOHR)
           CHARGE         X                   Y                   Z
 C           6.0    -1.7377603843        3.7880141538        0.0218927968
 C           6.0     0.5223014035        1.9440086502        0.2689219920
 C           6.0    -4.1233346542        2.0841702881        0.0056368070
 H           1.0    -1.5927481788        4.8108585047       -1.7554187398
 H           1.0    -1.7641010859        5.1667856166        1.5445169103
 C           6.0    -3.2625673770       -0.4805713971       -1.1210916207
 H           1.0    -5.6267608713        2.9282693884       -1.1105978400
 H           1.0    -4.8290961557        1.8418638394        1.9194401525
 C           6.0    -0.4046462699       -0.4505694648       -1.1068941283
 H           1.0     0.9142297608        1.5419034004        2.2453352477
 H           1.0     2.2416432522        2.6701539645       -0.5901197386
 H           1.0    -4.0582379970       -0.8441503497       -2.9690570830
 H           1.0     0.6054670159       -1.1006905547       -2.7759243091
 B           5.0    -2.7859530094       -2.7110335565        0.5619924523
 H           1.0     0.0339129092       -2.6614901945        0.6119397810
 H           1.0    -2.9816032006       -2.4454469497        2.7241586294
 H           1.0    -2.9415670312       -4.7155550122       -0.2970867894

          INTERNUCLEAR DISTANCES (ANGS.)
          ------------------------------

                1 C          2 C          3 C          4 H          5 H     

   1 C       0.0000000    1.5490763 *  1.5513391 *  1.0878519 *  1.0870811 *
   2 C       1.5490763 *  0.0000000    2.4634266 *  2.1683498 *  2.1972692 *
   3 C       1.5513391 *  2.4634266 *  0.0000000    2.1780008 *  2.2096970 *
   4 H       1.0878519 *  2.1683498 *  2.1780008 *  0.0000000    1.7587181 *
   5 H       1.0870811 *  2.1972692 *  2.2096970 *  1.7587181 *  0.0000000  
   6 C       2.4737139 *  2.4897189 *  1.5507997 *  2.9553447 *  3.3984351  
   7 H       2.1912041 *  3.3752554    1.0869117 *  2.3803093 *  2.7487042 *
   8 H       2.1782920 *  2.9639642 *  1.0869995 *  3.0303642    2.4011978 *
   9 C       2.4259729 *  1.5415421 *  2.4531960 *  2.8748888 *  3.3648673  
  10 H       2.1832497 *  1.0872636 *  2.9314393 *  3.0388341    2.4136733 *
  11 H       2.2111647 *  1.0872469 *  3.3971055    2.4042995 *  2.7413134 *
  12 H       3.1656719    3.3148501    2.2091552 *  3.3271189    4.1589011  
  13 H       3.2283251    2.2790405 *  3.3569190    3.3809413    4.2189176  
  14 B       3.4952963    3.0260359    2.6507556 *  4.2126296    4.2357183  
  15 H       3.5531046    2.4575030 *  3.3539822    4.2362748    4.2789619  
  16 H       3.6549803    3.2436819    2.8600718 *  4.5720884    4.1269024  
  17 H       4.5478955    3.9835674    3.6557103    5.1495934    5.3559061  

                6 C          7 H          8 H          9 C         10 H     

   1 C       2.4737139 *  2.1912041 *  2.1782920 *  2.4259729 *  2.1832497 *
   2 C       2.4897189 *  3.3752554    2.9639642 *  1.5415421 *  1.0872636 *
   3 C       1.5507997 *  1.0869117 *  1.0869995 *  2.4531960 *  2.9314393 *
   4 H       2.9553447 *  2.3803093 *  3.0303642    2.8748888 *  3.0388341  
   5 H       3.3984351    2.7487042 *  2.4011978 *  3.3648673    2.4136733 *
   6 C       0.0000000    2.1952704 *  2.1877848 *  1.5124488 *  3.0338461  
   7 H       2.1952704 *  0.0000000    1.7548970 *  3.2914249    3.9588986  
   8 H       2.1877848 *  1.7548970 *  0.0000000    3.0851400    3.0482620  
   9 C       1.5124488 *  3.2914249    3.0851400    0.0000000    2.1784386 *
  10 H       3.0338461    3.9588986    3.0482620    2.1784386 *  0.0000000  
  11 H       3.3678852    4.1751147    3.9944755    2.1824195 *  1.7610380 *
  12 H       1.0819388 *  2.3751327 *  2.9797096 *  2.1800105 *  4.0164719  
  13 H       2.2503855 *  4.0247572    4.1071638    1.0881830 *  3.0070906  
  14 B       1.5000000 *  3.4566855    2.7367200 *  1.9490326 *  3.1132748  
  15 H       2.2838512 *  4.3073785    3.5749286    1.5000000 *  2.4314215 *
  16 H       2.2899149 *  3.7634528    2.5068616 *  2.6615674 *  2.9608282 *
  17 H       2.2893942 *  4.3088196    3.7966578    2.6607597 *  4.1155862  

               11 H         12 H         13 H         14 B         15 H     

   1 C       2.2111647 *  3.1656719    3.2283251    3.4952963    3.5531046  
   2 C       1.0872469 *  3.3148501    2.2790405 *  3.0260359    2.4575030 *
   3 C       3.3971055    2.2091552 *  3.3569190    2.6507556 *  3.3539822  
   4 H       2.4042995 *  3.3271189    3.3809413    4.2126296    4.2362748  
   5 H       2.7413134 *  4.1589011    4.2189176    4.2357183    4.2789619  
   6 C       3.3678852    1.0819388 *  2.2503855 *  1.5000000 *  2.2838512 *
   7 H       4.1751147    2.3751327 *  4.0247572    3.4566855    4.3073785  
   8 H       3.9944755    2.9797096 *  4.1071638    2.7367200 *  3.5749286  
   9 C       2.1824195 *  2.1800105 *  1.0881830 *  1.9490326 *  1.5000000 *
  10 H       1.7610380 *  4.0164719    3.0070906    3.1132748    2.4314215 *
  11 H       0.0000000    4.0195943    2.4636076 *  3.9444570    3.1192496  
  12 H       4.0195943    0.0000000    2.4737696 *  2.2182737 *  3.0339888  
  13 H       2.4636076 *  2.4737696 *  0.0000000    2.6583783 *  1.9969268 *
  14 B       3.9444570    2.2182737 *  2.6583783 *  0.0000000    1.4926732 *
  15 H       3.1192496    3.0339888    1.9969268 *  1.4926732 *  0.0000000  
  16 H       4.2478175    3.1810551    3.5469230    1.1574085 *  1.9516155 *
  17 H       4.7772789    2.5584039 *  2.9837964 *  1.1569924 *  1.9728444 *

               16 H         17 H     

   1 C       3.6549803    4.5478955  
   2 C       3.2436819    3.9835674  
   3 C       2.8600718 *  3.6557103  
   4 H       4.5720884    5.1495934  
   5 H       4.1269024    5.3559061  
   6 C       2.2899149 *  2.2893942 *
   7 H       3.7634528    4.3088196  
   8 H       2.5068616 *  3.7966578  
   9 C       2.6615674 *  2.6607597 *
  10 H       2.9608282 *  4.1155862  
  11 H       4.2478175    4.7772789  
  12 H       3.1810551    2.5584039 *
  13 H       3.5469230    2.9837964 *
  14 B       1.1574085 *  1.1569924 *
  15 H       1.9516155 *  1.9728444 *
  16 H       0.0000000    1.9999062 *
  17 H       1.9999062 *  0.0000000  

  * ... LESS THAN  3.000


     ATOMIC BASIS SET
     ----------------
 THE CONTRACTED PRIMITIVE FUNCTIONS HAVE BEEN UNNORMALIZED
 THE CONTRACTED BASIS FUNCTIONS ARE NOW NORMALIZED TO UNITY

  SHELL TYPE  PRIMITIVE        EXPONENT          CONTRACTION COEFFICIENT(S)

 C         

      1   S       1            71.6168373    0.154328967295
      1   S       2            13.0450963    0.535328142282
      1   S       3             3.5305122    0.444634542185

      2   L       4             2.9412494   -0.099967229187    0.155916274999
      2   L       5             0.6834831    0.399512826089    0.607683718598
      2   L       6             0.2222899    0.700115468880    0.391957393099

 C         

      3   S       7            71.6168373    0.154328967295
      3   S       8            13.0450963    0.535328142282
      3   S       9             3.5305122    0.444634542185

      4   L      10             2.9412494   -0.099967229187    0.155916274999
      4   L      11             0.6834831    0.399512826089    0.607683718598
      4   L      12             0.2222899    0.700115468880    0.391957393099

 C         

      5   S      13            71.6168373    0.154328967295
      5   S      14            13.0450963    0.535328142282
      5   S      15             3.5305122    0.444634542185

      6   L      16             2.9412494   -0.099967229187    0.155916274999
      6   L      17             0.6834831    0.399512826089    0.607683718598
      6   L      18             0.2222899    0.700115468880    0.391957393099

 H         

      7   S      19             3.4252509    0.154328967295
      7   S      20             0.6239137    0.535328142282
      7   S      21             0.1688554    0.444634542185

 H         

      8   S      22             3.4252509    0.154328967295
      8   S      23             0.6239137    0.535328142282
      8   S      24             0.1688554    0.444634542185

 C         

      9   S      25            71.6168373    0.154328967295
      9   S      26            13.0450963    0.535328142282
      9   S      27             3.5305122    0.444634542185

     10   L      28             2.9412494   -0.099967229187    0.155916274999
     10   L      29             0.6834831    0.399512826089    0.607683718598
     10   L      30             0.2222899    0.700115468880    0.391957393099

 H         

     11   S      31             3.4252509    0.154328967295
     11   S      32             0.6239137    0.535328142282
     11   S      33             0.1688554    0.444634542185

 H         

     12   S      34             3.4252509    0.154328967295
     12   S      35             0.6239137    0.535328142282
     12   S      36             0.1688554    0.444634542185

 C         

     13   S      37            71.6168373    0.154328967295
     13   S      38            13.0450963    0.535328142282
     13   S      39             3.5305122    0.444634542185

     14   L      40             2.9412494   -0.099967229187    0.155916274999
     14   L      41             0.6834831    0.399512826089    0.607683718598
     14   L      42             0.2222899    0.700115468880    0.391957393099

 H         

     15   S      43             3.4252509    0.154328967295
     15   S      44             0.6239137    0.535328142282
     15   S      45             0.1688554    0.444634542185

 H         

     16   S      46             3.4252509    0.154328967295
     16   S      47             0.6239137    0.535328142282
     16   S      48             0.1688554    0.444634542185

 H         

     17   S      49             3.4252509    0.154328967295
     17   S      50             0.6239137    0.535328142282
     17   S      51             0.1688554    0.444634542185

 H         

     18   S      52             3.4252509    0.154328967295
     18   S      53             0.6239137    0.535328142282
     18   S      54             0.1688554    0.444634542185

 B         

     19   S      55            48.7911132    0.154328967295
     19   S      56             8.8873622    0.535328142282
     19   S      57             2.4052670    0.444634542185

     20   L      58             2.2369561   -0.099967229187    0.155916274999
     20   L      59             0.5198205    0.399512826089    0.607683718598
     20   L      60             0.1690618    0.700115468880    0.391957393099

 H         

     21   S      61             3.4252509    0.154328967295
     21   S      62             0.6239137    0.535328142282
     21   S      63             0.1688554    0.444634542185

 H         

     22   S      64             3.4252509    0.154328967295
     22   S      65             0.6239137    0.535328142282
     22   S      66             0.1688554    0.444634542185

 H         

     23   S      67             3.4252509    0.154328967295
     23   S      68             0.6239137    0.535328142282
     23   S      69             0.1688554    0.444634542185

 TOTAL NUMBER OF BASIS SET SHELLS             =   23
 NUMBER OF CARTESIAN GAUSSIAN BASIS FUNCTIONS =   41
 NUMBER OF ELECTRONS                          =   46
 CHARGE OF MOLECULE                           =    0
 SPIN MULTIPLICITY                            =    1
 NUMBER OF OCCUPIED ORBITALS (ALPHA)          =   23
 NUMBER OF OCCUPIED ORBITALS (BETA )          =   23
 TOTAL NUMBER OF ATOMS                        =   17
 THE NUCLEAR REPULSION ENERGY IS      237.2623827359

     $CONTRL OPTIONS
     ---------------
 SCFTYP=RHF          RUNTYP=SADPOINT     EXETYP=RUN     
 MPLEVL=       0     CITYP =NONE         CCTYP =NONE         VBTYP =NONE    
 DFTTYP=NONE         TDDFT =NONE    
 MULT  =       1     ICHARG=       0     NZVAR =       0     COORD =UNIQUE  
 PP    =NONE         RELWFN=NONE         LOCAL =NONE         NUMGRD=       F
 ISPHER=      -1     NOSYM =       0     MAXIT =      30     UNITS =ANGS    
 PLTORB=       F     MOLPLT=       F     AIMPAC=       F     FRIEND=        
 NPRINT=       7     IREST =       0     GEOM  =INPUT   
 NORMF =       0     NORMP =       0     ITOL  =      20     ICUT  =       9
 INTTYP=BEST         GRDTYP=BEST         QMTTOL= 1.0E-06

     $SYSTEM OPTIONS
     ---------------
  REPLICATED MEMORY=     1000000 WORDS (ON EVERY NODE).
 DISTRIBUTED MEMDDI=           0 MILLION WORDS IN AGGREGATE,
 MEMDDI DISTRIBUTED OVER   1 PROCESSORS IS           0 WORDS/PROCESSOR.
 TOTAL MEMORY REQUESTED ON EACH PROCESSOR=     1000000 WORDS.
 TIMLIM=      525600.00 MINUTES, OR     365.0 DAYS.
 PARALL= F  BALTYP=  DLB     KDIAG=    0  COREFL= F
 MXSEQ2=     300 MXSEQ3=     150  mem10=         0

          ----------------
          PROPERTIES INPUT
          ----------------

     MOMENTS            FIELD           POTENTIAL          DENSITY
 IEMOM =       1   IEFLD =       0   IEPOT =       0   IEDEN =       0
 WHERE =COMASS     WHERE =NUCLEI     WHERE =NUCLEI     WHERE =NUCLEI  
 OUTPUT=BOTH       OUTPUT=BOTH       OUTPUT=BOTH       OUTPUT=BOTH    
 IEMINT=       0   IEFINT=       0                     IEDINT=       0
                                                       MORB  =       0
          EXTRAPOLATION IN EFFECT
          SOSCF IN EFFECT
 ORBITAL PRINTING OPTION: NPREO=     1    41     2     1

     -------------------------------
     INTEGRAL TRANSFORMATION OPTIONS
     -------------------------------
     NWORD  =            0
     CUTOFF = 1.0E-09     MPTRAN =       0
     DIRTRF =       F     AOINTS =DUP     

          ----------------------
          INTEGRAL INPUT OPTIONS
          ----------------------
 NOPK  =       1 NORDER=       0 SCHWRZ=       T

     ------------------------------------------
     THE POINT GROUP IS C1 , NAXIS= 0, ORDER= 1
     ------------------------------------------

     DIMENSIONS OF THE SYMMETRY SUBSPACES ARE
 A   =   41

 ..... DONE SETTING UP THE RUN .....
 STEP CPU TIME =     0.04 TOTAL CPU TIME =          0.0 (      0.0 MIN)
 TOTAL WALL CLOCK TIME=          0.1 SECONDS, CPU UTILIZATION IS    66.67%


          -----------------------------
          STATIONARY POINT LOCATION RUN
          -----------------------------

 OBTAINING INITIAL HESSIAN, HESS=CALC    

     ---------------------------------
     HESSIAN MATRIX CONTROL PARAMETERS
     ---------------------------------
     METHOD=ANALYTIC   NVIB  =       2   VIBSIZ= 0.01000
     RDHESS=       F   PURIFY=       F   PRTIFC=       F
     VIBANL=       F   DECOMP=       F   PROJCT=       F
     SCLFAC= 1.00000   PRTSCN=       F   NPRT  =       0
     PULCOR=       F   NPUN  =       0   REDOVB=       T
     HSSTYP=GENERAL 
 Old integral subroutine is used

     ------------------------------
     CPHF RESPONSE SOLUTION OPTIONS
     ------------------------------
     POLAR  =       F     NWORD  =       0
     CPHF   =AO      

          ********************
          1 ELECTRON INTEGRALS
          ********************
 ...... END OF ONE-ELECTRON INTEGRALS ......
 STEP CPU TIME =     0.03 TOTAL CPU TIME =          0.1 (      0.0 MIN)
 TOTAL WALL CLOCK TIME=          0.1 SECONDS, CPU UTILIZATION IS    87.50%

          -------------
          GUESS OPTIONS
          -------------
          GUESS =HUCKEL            NORB  =       0          NORDER=       0
          MIX   =       F          PRTMO =       F          PUNMO =       F
          TOLZ  = 1.0E-08          TOLE  = 1.0E-05
          SYMDEN=       F          PURIFY=       F

 INITIAL GUESS ORBITALS GENERATED BY HUCKEL   ROUTINE.
 HUCKEL GUESS REQUIRES     30318 WORDS.

 SYMMETRIES FOR INITIAL GUESS ORBITALS FOLLOW.   BOTH SET(S).
    23 ORBITALS ARE OCCUPIED (    6 CORE ORBITALS).
     7=A        8=A        9=A       10=A       11=A       12=A       13=A   
    14=A       15=A       16=A       17=A       18=A       19=A       20=A   
    21=A       22=A       23=A       24=A       25=A       26=A       27=A   
    28=A       29=A       30=A       31=A       32=A       33=A   
 ...... END OF INITIAL ORBITAL SELECTION ......
 STEP CPU TIME =     0.01 TOTAL CPU TIME =          0.1 (      0.0 MIN)
 TOTAL WALL CLOCK TIME=          0.1 SECONDS, CPU UTILIZATION IS    80.00%

                    ----------------------
                    AO INTEGRAL TECHNOLOGY
                    ----------------------
     S,P,L SHELL ROTATED AXIS INTEGRALS, REPROGRAMMED BY
        KAZUYA ISHIMURA (IMS) AND JOSE SIERRA (SYNSTAR).
     S,P,D,L SHELL ROTATED AXIS INTEGRALS PROGRAMMED BY
        KAZUYA ISHIMURA (INSTITUTE FOR MOLECULAR SCIENCE).
     S,P,D,F,G SHELL TO TOTAL QUARTET ANGULAR MOMENTUM SUM 5,
        ERIC PROGRAM BY GRAHAM FLETCHER (ELORET AND NASA ADVANCED
        SUPERCOMPUTING DIVISION, AMES RESEARCH CENTER).
     S,P,D,F,G,L SHELL GENERAL RYS QUADRATURE PROGRAMMED BY
        MICHEL DUPUIS (PACIFIC NORTHWEST NATIONAL LABORATORY).

          --------------------
          2 ELECTRON INTEGRALS
          --------------------

 THE -PK- OPTION IS OFF, THE INTEGRALS ARE NOT IN SUPERMATRIX FORM.
 STORING   15000 INTEGRALS/RECORD ON DISK, USING 12 BYTES/INTEGRAL.
 TWO ELECTRON INTEGRAL EVALUATION REQUIRES   89632 WORDS OF MEMORY.
 SCHWARZ INEQUALITY OVERHEAD:       854 INTEGRALS, T=        0.00
 II,JST,KST,LST =  1  1  1  1 NREC =         1 INTLOC =    1
 II,JST,KST,LST =  2  1  1  1 NREC =         1 INTLOC =    2
 II,JST,KST,LST =  3  1  1  1 NREC =         1 INTLOC =   34
 II,JST,KST,LST =  4  1  1  1 NREC =         1 INTLOC =  140
 II,JST,KST,LST =  5  1  1  1 NREC =         1 INTLOC = 1358
 II,JST,KST,LST =  6  1  1  1 NREC =         1 INTLOC = 1920
 II,JST,KST,LST =  7  1  1  1 NREC =         1 INTLOC = 6764
 II,JST,KST,LST =  8  1  1  1 NREC =         1 INTLOC = 8799
 II,JST,KST,LST =  9  1  1  1 NREC =         1 INTLOC =11240
 II,JST,KST,LST = 10  1  1  1 NREC =         1 INTLOC =13684
 II,JST,KST,LST = 11  1  1  1 NREC =         3 INTLOC =  637
 II,JST,KST,LST = 12  1  1  1 NREC =         3 INTLOC = 6627
 II,JST,KST,LST = 13  1  1  1 NREC =         3 INTLOC =13444
 II,JST,KST,LST = 14  1  1  1 NREC =         4 INTLOC = 5159
 II,JST,KST,LST = 15  1  1  1 NREC =         7 INTLOC = 1055
 II,JST,KST,LST = 16  1  1  1 NREC =         7 INTLOC =14327
 II,JST,KST,LST = 17  1  1  1 NREC =         8 INTLOC =13986
 II,JST,KST,LST = 18  1  1  1 NREC =        10 INTLOC =  116
 II,JST,KST,LST = 19  1  1  1 NREC =        11 INTLOC = 2814
 II,JST,KST,LST = 20  1  1  1 NREC =        12 INTLOC = 4532
 II,JST,KST,LST = 21  1  1  1 NREC =        18 INTLOC =10128
 II,JST,KST,LST = 22  1  1  1 NREC =        20 INTLOC = 9283
 II,JST,KST,LST = 23  1  1  1 NREC =        22 INTLOC =10746
 SCHWARZ INEQUALITY TEST SKIPPED        3187 INTEGRAL BLOCKS.
 TOTAL NUMBER OF NONZERO TWO-ELECTRON INTEGRALS =              359239
         24 INTEGRAL RECORDS WERE STORED ON DISK FILE  8.
  ...... END OF TWO-ELECTRON INTEGRALS .....
 STEP CPU TIME =     0.14 TOTAL CPU TIME =          0.2 (      0.0 MIN)
 TOTAL WALL CLOCK TIME=          0.2 SECONDS, CPU UTILIZATION IS    95.65%

          --------------------------
                 RHF SCF CALCULATION
          --------------------------

     NUCLEAR ENERGY =       237.2623827359
     MAXIT =   30     NPUNCH=    2
     EXTRAP=T  DAMP=F  SHIFT=F  RSTRCT=F  DIIS=F  DEM=F  SOSCF=T
     DENSITY MATRIX CONV=  1.00E-05
     SOSCF WILL OPTIMIZE     414 ORBITAL ROTATIONS, SOGTOL=   0.250
     MEMORY REQUIRED FOR RHF ITERS=     43997 WORDS.

 ITER EX DEM     TOTAL ENERGY        E CHANGE  DENSITY CHANGE     ORB. GRAD
   1  0  0     -217.4269093448  -217.4269093448   0.385306089   0.000000000
          ---------------START SECOND ORDER SCF---------------
   2  1  0     -217.7372054975    -0.3102961527   0.101191353   0.029045955
   3  2  0     -217.7523923748    -0.0151868773   0.046391557   0.009094627
   4  3  0     -217.7542980075    -0.0019056327   0.006234549   0.002891045
   5  4  0     -217.7543976820    -0.0000996745   0.001702091   0.000653480
   6  5  0     -217.7544079912    -0.0000103092   0.000658186   0.000193051
   7  6  0     -217.7544090503    -0.0000010592   0.000089303   0.000030450
   8  7  0     -217.7544090849    -0.0000000345   0.000025628   0.000007524
   9  8  0     -217.7544090875    -0.0000000026   0.000008650   0.000001802
  10  9  0     -217.7544090876    -0.0000000001   0.000001947   0.000000493

          -----------------
          DENSITY CONVERGED
          -----------------
     TIME TO FORM FOCK OPERATORS=       0.0 SECONDS (       0.0 SEC/ITER)
     TIME TO SOLVE SCF EQUATIONS=       0.0 SECONDS (       0.0 SEC/ITER)

 FINAL RHF ENERGY IS     -217.7544090876 AFTER  10 ITERATIONS

          ------------
          EIGENVECTORS
          ------------

                      1          2          3          4          5
                  -11.1136   -11.0717   -11.0502   -11.0374   -11.0117
                     A          A          A          A          A   
    1  C  1  S   -0.000717  -0.006665   0.991872   0.012860   0.001086
    2  C  1  S    0.000035  -0.005769   0.037195  -0.005116   0.000091
    3  C  1  X    0.000075  -0.003257   0.000130   0.003461  -0.000059
    4  C  1  Y    0.000211   0.002516   0.000162   0.002357   0.000135
    5  C  1  Z    0.000224  -0.000384  -0.000226  -0.000000   0.000130
    6  C  2  S   -0.003084   0.991938   0.007643   0.001336   0.000475
    7  C  2  S   -0.005461   0.037262  -0.005320   0.000050   0.000195
    8  C  2  X    0.001194   0.000028   0.003167   0.000187   0.000028
    9  C  2  Y    0.003286  -0.000302  -0.002740   0.000099  -0.000008
   10  C  2  Z    0.001907   0.000008   0.000336  -0.000081  -0.000119
   11  C  3  S   -0.000386  -0.001165  -0.011869   0.991888   0.006808
   12  C  3  S    0.000141   0.000051  -0.005970   0.037117  -0.005275
   13  C  3  X   -0.000087  -0.000098  -0.003307  -0.000191  -0.001221
   14  C  3  Y   -0.000006   0.000170  -0.002485   0.000102   0.003585
   15  C  3  Z   -0.000072  -0.000111  -0.000031   0.000128   0.001560
   16  H  4  S   -0.000022   0.000102  -0.007046  -0.000016  -0.000008
   17  H  5  S   -0.000139   0.000164  -0.006986   0.000036  -0.000112
   18  C  6  S    0.000078  -0.000416  -0.000939  -0.005823   0.991715
   19  C  6  S   -0.004866   0.000156   0.000124  -0.005730   0.038847
   20  C  6  X   -0.003883   0.000014  -0.000085   0.001260   0.002326
   21  C  6  Y   -0.000624   0.000008  -0.000008  -0.003665  -0.000987
   22  C  6  Z    0.000545  -0.000056   0.000084  -0.001554   0.000452
   23  H  7  S   -0.000054  -0.000109   0.000201  -0.007016   0.000066
   24  H  8  S    0.000018   0.000036   0.000146  -0.007015   0.000057
   25  C  9  S    0.992291   0.004061   0.000843   0.000456   0.000722
   26  C  9  S    0.034659  -0.005588  -0.000008   0.000194  -0.005811
   27  C  9  X   -0.000783  -0.001440   0.000138  -0.000038   0.004314
   28  C  9  Y   -0.000073  -0.003498  -0.000161  -0.000064  -0.000479
   29  C  9  Z   -0.000048  -0.002027   0.000067  -0.000073   0.000511
   30  H 10  S    0.000046  -0.007008   0.000013   0.000006   0.000035
   31  H 11  S    0.000088  -0.006982   0.000076  -0.000125  -0.000074
   32  H 12  S    0.000100  -0.000054   0.000017   0.000155  -0.006929
   33  H 13  S   -0.006659   0.000081  -0.000005  -0.000066   0.000154
   34  B 14  S    0.000233   0.000010  -0.000005   0.000035   0.000473
   35  B 14  S   -0.001422  -0.000020   0.000008   0.000033  -0.007272
   36  B 14  X   -0.001055  -0.000013   0.000044  -0.000067   0.001267
   37  B 14  Y   -0.001241  -0.000011   0.000022  -0.000022  -0.003964
   38  B 14  Z    0.000909   0.000049   0.000025   0.000053   0.002998
   39  H 15  S   -0.003442   0.000069  -0.000064   0.000014   0.000586
   40  H 16  S    0.000082  -0.000003  -0.000004  -0.000003   0.000393
   41  H 17  S    0.000085  -0.000014   0.000010  -0.000037   0.000436

                      6          7          8          9         10
                   -7.3476    -1.0998    -0.9577    -0.9315    -0.7674
                     A          A          A          A          A   
    1  C  1  S   -0.000011  -0.093872  -0.146231  -0.026525  -0.131449
    2  C  1  S    0.000073   0.245162   0.413402   0.076606   0.410256
    3  C  1  X    0.000024   0.006261   0.012320  -0.121873   0.021161
    4  C  1  Y   -0.000070  -0.051771  -0.009580   0.001001   0.148792
    5  C  1  Z    0.000008  -0.003393   0.005237  -0.006887  -0.028155
    6  C  2  S    0.000032  -0.110621  -0.075296   0.137420   0.088706
    7  C  2  S   -0.000089   0.292840   0.214457  -0.398333  -0.278578
    8  C  2  X    0.000153  -0.048989  -0.031178  -0.036305  -0.118336
    9  C  2  Y    0.000071  -0.022168   0.091433   0.042113   0.086850
   10  C  2  Z    0.000062  -0.023613   0.019714   0.013162  -0.046437
   11  C  3  S    0.000071  -0.087405  -0.051473  -0.149678   0.100692
   12  C  3  S   -0.000044   0.227291   0.143405   0.426719  -0.311884
   13  C  3  X   -0.000200   0.047066   0.035663  -0.004061   0.111660
   14  C  3  Y    0.000335  -0.015081   0.085357  -0.013853   0.072278
   15  C  3  Z   -0.000207  -0.012595   0.021049  -0.011595  -0.018140
   16  H  4  S   -0.000015   0.049619   0.109961   0.020930   0.201732
   17  H  5  S    0.000012   0.044440   0.114248   0.021023   0.188805
   18  C  6  S    0.000062  -0.110244   0.108869  -0.082904  -0.007211
   19  C  6  S   -0.006456   0.282071  -0.299674   0.234427   0.018859
   20  C  6  X    0.000148   0.065658  -0.083234  -0.051381   0.095575
   21  C  6  Y    0.002900   0.020098   0.064004   0.055303  -0.112204
   22  C  6  Z   -0.002173   0.023510   0.000625   0.020049  -0.038836
   23  H  7  S   -0.000085   0.040530   0.039251   0.123369  -0.132402
   24  H  8  S   -0.000450   0.043068   0.037488   0.115201  -0.142468
   25  C  9  S    0.000273  -0.127567   0.104319   0.076802  -0.030418
   26  C  9  S   -0.002301   0.345617  -0.305712  -0.231451   0.098749
   27  C  9  X    0.001660  -0.051119   0.086389  -0.097342  -0.079895
   28  C  9  Y    0.001426   0.037012   0.070500  -0.051984  -0.113214
   29  C  9  Z   -0.000993   0.026854   0.024617  -0.027683  -0.077298
   30  H 10  S   -0.000115   0.059199   0.057263  -0.114537  -0.146890
   31  H 11  S   -0.000047   0.055188   0.060461  -0.125263  -0.127153
   32  H 12  S   -0.000427   0.051142  -0.077310   0.066554   0.016279
   33  H 13  S   -0.000147   0.065372  -0.088218  -0.073526   0.069747
   34  B 14  S    0.989848  -0.043151   0.066386  -0.015661  -0.038270
   35  B 14  S    0.042622   0.062496  -0.110811   0.028195   0.074788
   36  B 14  X    0.002581   0.010550  -0.017599  -0.019658   0.023389
   37  B 14  Y    0.001748   0.034741  -0.046156   0.020828   0.002533
   38  B 14  Z   -0.001219  -0.022604   0.039133  -0.012403  -0.031678
   39  H 15  S   -0.005663   0.046771  -0.072385  -0.038044   0.050710
   40  H 16  S   -0.006963   0.016248  -0.026880   0.009171   0.012762
   41  H 17  S   -0.006968   0.013496  -0.031640   0.006036   0.038569

                     11         12         13         14         15
                   -0.7344    -0.6797    -0.6389    -0.5907    -0.5492
                     A          A          A          A          A   
    1  C  1  S    0.003216  -0.005076   0.003368  -0.006153   0.000671
    2  C  1  S   -0.009846   0.015855  -0.015350   0.020805  -0.001624
    3  C  1  X   -0.131387  -0.043672   0.016354  -0.023516   0.123805
    4  C  1  Y    0.002245   0.019083   0.203395   0.029745  -0.027533
    5  C  1  Z   -0.024162   0.130081   0.016490   0.364920   0.095669
    6  C  2  S    0.056650   0.005462  -0.013894   0.005741   0.001435
    7  C  2  S   -0.180595  -0.018325   0.043311  -0.019487  -0.002744
    8  C  2  X   -0.024633  -0.019794   0.289033  -0.056223   0.057269
    9  C  2  Y   -0.124611  -0.046137   0.122222  -0.019105   0.210982
   10  C  2  Z   -0.103944   0.153785   0.023595   0.282345  -0.287164
   11  C  3  S   -0.068051  -0.015834  -0.012162   0.007316  -0.003570
   12  C  3  S    0.212309   0.051143   0.037364  -0.024607   0.012744
   13  C  3  X   -0.054510  -0.020694  -0.215295   0.023861   0.042008
   14  C  3  Y    0.126270   0.042342   0.065388  -0.006975  -0.186202
   15  C  3  Z    0.040236   0.164730  -0.017268   0.156419   0.324883
   16  H  4  S    0.006018  -0.072054   0.064571  -0.240727  -0.078223
   17  H  5  S   -0.012784   0.083000   0.103975   0.249511   0.043815
   18  C  6  S    0.115814   0.055700  -0.010255  -0.020702  -0.013956
   19  C  6  S   -0.362971  -0.185604   0.032371   0.068360   0.053478
   20  C  6  X    0.053953   0.047192  -0.158430   0.016355   0.013300
   21  C  6  Y    0.083437  -0.118800  -0.149935  -0.024659  -0.025629
   22  C  6  Z    0.011025   0.221499  -0.126563  -0.119959   0.158944
   23  H  7  S    0.119401  -0.022280   0.159308  -0.096821  -0.244558
   24  H  8  S    0.098510   0.131271   0.053081   0.097596   0.269944
   25  C  9  S   -0.117020   0.012450   0.025304  -0.017400   0.005425
   26  C  9  S    0.393291  -0.039669  -0.092954   0.057917  -0.028511
   27  C  9  X    0.194360  -0.004825   0.160913  -0.021257  -0.001368
   28  C  9  Y   -0.047054  -0.123950  -0.198310  -0.077681   0.022501
   29  C  9  Z   -0.118256   0.190928  -0.166029  -0.132432  -0.153810
   30  H 10  S   -0.117629   0.108428   0.059984   0.206662  -0.270711
   31  H 11  S   -0.078047  -0.077901   0.228426  -0.151728   0.220268
   32  H 12  S   -0.163843  -0.203157   0.165362   0.111877  -0.097817
   33  H 13  S    0.280110  -0.100341   0.165120   0.128906   0.094474
   34  B 14  S    0.059802  -0.136381  -0.058631   0.085419  -0.012858
   35  B 14  S   -0.123142   0.309476   0.141276  -0.210212   0.025493
   36  B 14  X    0.048101   0.058736  -0.011409  -0.012879  -0.066420
   37  B 14  Y   -0.050002   0.011848  -0.056926   0.031957   0.061682
   38  B 14  Z    0.039762   0.037223  -0.038003  -0.062591   0.010271
   39  H 15  S    0.078319   0.212760   0.065826  -0.081532  -0.129038
   40  H 16  S   -0.042585   0.174356   0.044450  -0.150439   0.040919
   41  H 17  S   -0.044403   0.131225   0.117047  -0.116678  -0.024290

                     16         17         18         19         20
                   -0.5080    -0.4764    -0.4678    -0.4488    -0.4446
                     A          A          A          A          A   
    1  C  1  S    0.019677  -0.000691  -0.004709   0.000797   0.008374
    2  C  1  S   -0.080457  -0.006502   0.018203  -0.006432  -0.032402
    3  C  1  X   -0.035762   0.022195   0.047290   0.232049   0.436570
    4  C  1  Y    0.322115   0.290415  -0.051407   0.012056   0.005232
    5  C  1  Z   -0.065001   0.038447  -0.211293  -0.292510   0.161614
    6  C  2  S    0.013672   0.014083   0.017834  -0.016988  -0.015642
    7  C  2  S   -0.056127  -0.051608  -0.071635   0.069228   0.066877
    8  C  2  X    0.247159  -0.028631   0.074377  -0.248211  -0.285577
    9  C  2  Y   -0.066423  -0.299219   0.179066  -0.058782   0.238849
   10  C  2  Z   -0.000470  -0.048872   0.312464   0.101042  -0.029000
   11  C  3  S    0.006194   0.020820  -0.016067   0.016724   0.010702
   12  C  3  S   -0.027294  -0.074528   0.064614  -0.071284  -0.047819
   13  C  3  X   -0.169154  -0.028261   0.148860  -0.241727  -0.359506
   14  C  3  Y   -0.000486  -0.264315  -0.210246  -0.035597  -0.100446
   15  C  3  Z    0.009064  -0.019331  -0.075004   0.290613  -0.213179
   16  H  4  S    0.165528   0.108693   0.174698   0.290285  -0.133255
   17  H  5  S    0.119931   0.220370  -0.185998  -0.228943   0.106569
   18  C  6  S   -0.023947  -0.026480  -0.011929   0.009841   0.011992
   19  C  6  S    0.076615   0.103443   0.048600  -0.043139  -0.044470
   20  C  6  X    0.202392  -0.288685  -0.033934  -0.066026   0.036709
   21  C  6  Y   -0.052284   0.141413   0.169287  -0.209856   0.073622
   22  C  6  Z    0.168365   0.033431   0.184311  -0.064663   0.068460
   23  H  7  S    0.095741  -0.108687  -0.121786  -0.028050   0.330249
   24  H  8  S    0.043691  -0.000911  -0.054550   0.322600  -0.086297
   25  C  9  S   -0.026530  -0.013666   0.024152  -0.006313  -0.014767
   26  C  9  S    0.101175   0.054981  -0.100682   0.023126   0.057961
   27  C  9  X   -0.215691   0.310832   0.027257   0.056922  -0.081821
   28  C  9  Y   -0.032052   0.186449  -0.273918   0.018895  -0.025897
   29  C  9  Z    0.152120   0.133034  -0.245135   0.041107  -0.046512
   30  H 10  S    0.029767  -0.014861   0.255936   0.103582  -0.099461
   31  H 11  S    0.145740  -0.139239  -0.034440  -0.257111  -0.121677
   32  H 12  S   -0.166464   0.115674  -0.154165   0.106610  -0.113993
   33  H 13  S   -0.161059   0.020973   0.262654   0.001855   0.039676
   34  B 14  S    0.066361   0.000270   0.010081   0.014961  -0.003029
   35  B 14  S   -0.181710   0.010523  -0.023321  -0.042119   0.009206
   36  B 14  X    0.042897  -0.063636   0.000875  -0.031706   0.026778
   37  B 14  Y    0.228274   0.069821   0.109699  -0.001193   0.043706
   38  B 14  Z   -0.067905   0.195466   0.118205  -0.133500   0.088594
   39  H 15  S   -0.000125   0.007986   0.019943  -0.026562   0.021483
   40  H 16  S   -0.155247   0.191401   0.104357  -0.139077   0.086501
   41  H 17  S   -0.274252  -0.113866  -0.150110   0.025546  -0.070160

                     21         22         23         24         25
                   -0.3974    -0.3914    -0.3680     0.3055     0.4822
                     A          A          A          A          A   
    1  C  1  S   -0.010879   0.011376   0.027464   0.012686  -0.007000
    2  C  1  S    0.043007  -0.048486  -0.114014  -0.065086   0.030046
    3  C  1  X    0.106546   0.008900   0.078466  -0.118100   0.063043
    4  C  1  Y   -0.044422   0.148216   0.197286   0.028983  -0.083509
    5  C  1  Z    0.040982   0.021078  -0.045124  -0.028464   0.036080
    6  C  2  S    0.007568   0.001840   0.013855  -0.012925  -0.024337
    7  C  2  S   -0.027026  -0.008311  -0.060508   0.054789   0.136658
    8  C  2  X   -0.010048   0.018710   0.097925  -0.053564  -0.028445
    9  C  2  Y    0.106952  -0.119116   0.009161  -0.047284  -0.325297
   10  C  2  Z   -0.077968   0.063643   0.069047  -0.134523  -0.028607
   11  C  3  S   -0.021555  -0.010178  -0.005812   0.008920  -0.017917
   12  C  3  S    0.087669   0.043132   0.017023  -0.042774   0.094254
   13  C  3  X    0.088327  -0.012539  -0.058996  -0.046660   0.049746
   14  C  3  Y   -0.236602  -0.178822  -0.184153   0.015153  -0.231729
   15  C  3  Z   -0.043787  -0.136816   0.108178   0.022778  -0.022763
   16  H  4  S   -0.039088   0.036031   0.113722  -0.014721   0.068162
   17  H  5  S    0.019568   0.110620   0.064718   0.062756   0.042501
   18  C  6  S   -0.005563  -0.016700   0.021795  -0.019574   0.027620
   19  C  6  S    0.011081   0.077868  -0.072491   0.093268  -0.170310
   20  C  6  X   -0.204945   0.000371   0.240288  -0.118500   0.122808
   21  C  6  Y    0.169276   0.062799   0.414229  -0.115913  -0.127253
   22  C  6  Z    0.029612   0.319925  -0.274118   0.106929   0.046165
   23  H  7  S   -0.109653   0.033252  -0.102111  -0.004421   0.085414
   24  H  8  S   -0.024184  -0.107645   0.192479  -0.021211  -0.049249
   25  C  9  S    0.014448  -0.007632  -0.020540   0.094278   0.067305
   26  C  9  S   -0.041037   0.017869   0.097404  -0.479724  -0.409814
   27  C  9  X    0.175236   0.035723  -0.298192  -0.103786   0.063303
   28  C  9  Y   -0.246866   0.138667   0.071848   0.612917  -0.191306
   29  C  9  Z    0.245103  -0.108411  -0.054385  -0.561812   0.130359
   30  H 10  S   -0.132556   0.083174   0.078560   0.199231  -0.120912
   31  H 11  S    0.057473  -0.068491   0.034112  -0.091223   0.062577
   32  H 12  S    0.035528  -0.296312   0.028504  -0.076618   0.210471
   33  H 13  S   -0.078552   0.102713  -0.108816   0.075550   0.298146
   34  B 14  S    0.054878  -0.034440   0.027507  -0.047356  -0.034106
   35  B 14  S   -0.130450   0.087363  -0.072716   0.196516   0.118489
   36  B 14  X    0.185424  -0.149889   0.149766   0.418755   0.852567
   37  B 14  Y   -0.070119  -0.171662  -0.324974   0.091355   0.119245
   38  B 14  Z   -0.201681  -0.284424   0.151719  -0.066433  -0.091825
   39  H 15  S    0.446519  -0.271211   0.065662   0.502284  -0.730185
   40  H 16  S   -0.363556  -0.254096   0.071222  -0.145511   0.156718
   41  H 17  S    0.027946   0.382916   0.212836  -0.140623   0.115854

                     26         27         28         29         30
                    0.5413     0.5642     0.5997     0.6344     0.6774
                     A          A          A          A          A   
    1  C  1  S    0.027973   0.026416  -0.001518   0.057950   0.020384
    2  C  1  S   -0.149871  -0.139276   0.037247  -0.350997  -0.146733
    3  C  1  X   -0.226678   0.595632  -0.268000  -0.089861   0.003324
    4  C  1  Y    0.248851   0.189720   0.377869   0.020101  -0.333947
    5  C  1  Z    0.216669  -0.025629  -0.333709  -0.532248  -0.193174
    6  C  2  S    0.011437   0.037952  -0.047784  -0.008669   0.116690
    7  C  2  S   -0.070344  -0.198335   0.289409   0.019468  -0.718265
    8  C  2  X   -0.234006   0.407867   0.012573  -0.380066   0.055229
    9  C  2  Y    0.386589   0.237458   0.561507  -0.018402   0.261101
   10  C  2  Z    0.325407   0.035667  -0.176930  -0.236471  -0.402452
   11  C  3  S    0.042894  -0.033688  -0.030733   0.037204   0.024087
   12  C  3  S   -0.231240   0.173772   0.197968  -0.233232  -0.163374
   13  C  3  X   -0.063460   0.454796  -0.225641   0.065260   0.202195
   14  C  3  Y    0.332860   0.361470   0.268349   0.168885  -0.251603
   15  C  3  Z    0.354132   0.002543  -0.222519  -0.346748   0.237435
   16  H  4  S    0.198974  -0.096804  -0.489440  -0.335145   0.026874
   17  H  5  S   -0.320296  -0.045705  -0.023769   0.567578   0.402784
   18  C  6  S   -0.018896  -0.035726  -0.016624   0.023957   0.083827
   19  C  6  S    0.091805   0.181153   0.104752  -0.172386  -0.506053
   20  C  6  X   -0.186664   0.498901  -0.340044   0.160356  -0.118614
   21  C  6  Y    0.282334   0.154196   0.035575   0.199620  -0.104401
   22  C  6  Z    0.423852   0.007474   0.000688   0.029391   0.345827
   23  H  7  S    0.129917   0.123106  -0.541011  -0.122957   0.439281
   24  H  8  S   -0.228690   0.121185   0.108044   0.492332  -0.139950
   25  C  9  S   -0.016798   0.028235  -0.090670   0.103323  -0.105235
   26  C  9  S    0.069813  -0.165405   0.538779  -0.640201   0.641250
   27  C  9  X   -0.129044   0.613086   0.086725  -0.202531  -0.023860
   28  C  9  Y    0.318941   0.334781  -0.045022  -0.062199   0.012642
   29  C  9  Z    0.359783   0.120348   0.009949   0.340654  -0.083311
   30  H 10  S   -0.188816   0.054756   0.181480   0.255878   0.741832
   31  H 11  S    0.254262  -0.372377  -0.431978   0.195740   0.037834
   32  H 12  S    0.377510   0.153967  -0.161692   0.194481   0.507028
   33  H 13  S    0.441614  -0.009281  -0.301961   0.654402  -0.375416
   34  B 14  S    0.014311  -0.033236  -0.003544  -0.012601   0.027224
   35  B 14  S   -0.071110   0.134251   0.012790   0.074596  -0.143639
   36  B 14  X    0.131923   0.047264   0.351985  -0.204413   0.054513
   37  B 14  Y    0.062776   0.215653   0.011848   0.200221   0.061394
   38  B 14  Z    0.276507  -0.075071  -0.030179  -0.031504   0.142019
   39  H 15  S   -0.067016   0.002858  -0.385542   0.114688  -0.121855
   40  H 16  S   -0.243997  -0.047456   0.088503  -0.097453  -0.061586
   41  H 17  S    0.256730   0.092113   0.056614   0.097956   0.197584

                     31         32         33         34         35
                    0.6966     0.7247     0.7375     0.7441     0.7574
                     A          A          A          A          A   
    1  C  1  S   -0.077268  -0.145557  -0.114023   0.057750   0.083962
    2  C  1  S    0.486771   0.872360   0.704794  -0.375239  -0.532798
    3  C  1  X    0.297101   0.239289  -0.595003  -0.355852   0.054061
    4  C  1  Y    0.160819  -0.532167  -0.066397  -0.229730  -0.263147
    5  C  1  Z   -0.169672  -0.076826  -0.114222   0.277483  -0.130151
    6  C  2  S   -0.064127   0.138042  -0.065572  -0.051615  -0.117752
    7  C  2  S    0.401529  -0.842194   0.428720   0.304172   0.758950
    8  C  2  X    0.348565   0.347967   0.318526  -0.209692   0.372186
    9  C  2  Y   -0.427921  -0.273977   0.230440   0.055293  -0.036392
   10  C  2  Z   -0.456561   0.228203   0.109306  -0.439568   0.342997
   11  C  3  S   -0.014077   0.112535   0.088268   0.119767   0.072308
   12  C  3  S    0.102136  -0.670984  -0.542165  -0.731141  -0.472150
   13  C  3  X   -0.093653  -0.416930  -0.318895  -0.117761   0.398771
   14  C  3  Y    0.246618   0.258953  -0.607018   0.227492   0.175737
   15  C  3  Z    0.442313  -0.216420  -0.044828   0.210956  -0.185491
   16  H  4  S   -0.436295  -0.239706  -0.323699   0.485489   0.237559
   17  H  5  S   -0.175284  -0.046791  -0.196345   0.087082   0.467377
   18  C  6  S   -0.036225  -0.068546   0.042503  -0.138811   0.026707
   19  C  6  S    0.224628   0.417500  -0.282436   0.837799  -0.165186
   20  C  6  X   -0.078352  -0.227379   0.499979   0.131083  -0.398853
   21  C  6  Y    0.152685   0.210346   0.052274   0.469337   0.043566
   22  C  6  Z    0.296268   0.022208   0.093649  -0.104941   0.217410
   23  H  7  S    0.051559  -0.157133   0.235019   0.268240   0.281292
   24  H  8  S   -0.426432   0.409520   0.118128   0.119695   0.489751
   25  C  9  S    0.063984  -0.032422   0.028160   0.057395  -0.043866
   26  C  9  S   -0.392344   0.198023  -0.170436  -0.343553   0.288812
   27  C  9  X   -0.376518   0.039121   0.219910   0.424086  -0.299909
   28  C  9  Y   -0.399089   0.193018   0.105171  -0.399505  -0.112121
   29  C  9  Z   -0.074829   0.075357   0.007638  -0.172363  -0.226368
   30  H 10  S    0.113545   0.070446  -0.279777   0.268990  -0.678642
   31  H 11  S   -0.484351   0.308730  -0.428771  -0.177447  -0.439479
   32  H 12  S    0.155912  -0.223746   0.383592  -0.366805   0.107555
   33  H 13  S    0.200976   0.001567   0.016894  -0.229099  -0.167629
   34  B 14  S    0.031304   0.000756  -0.007640   0.014330  -0.013890
   35  B 14  S   -0.156983  -0.007615   0.025370  -0.087114   0.094812
   36  B 14  X   -0.089991   0.157978  -0.134684   0.067052   0.066443
   37  B 14  Y   -0.119853   0.126346   0.218254   0.156693  -0.018949
   38  B 14  Z    0.319833   0.166150   0.032860  -0.004462   0.173836
   39  H 15  S    0.078382  -0.101846   0.128115  -0.071491  -0.042222
   40  H 16  S   -0.191553  -0.152042  -0.095213   0.034572  -0.197714
   41  H 17  S    0.093554   0.198972   0.152854   0.193421   0.008491

                     36         37         38         39         40
                    0.7936     0.8048     0.8303     0.8434     0.9067
                     A          A          A          A          A   
    1  C  1  S    0.073066  -0.028162  -0.009598  -0.013525   0.014605
    2  C  1  S   -0.481214   0.178968   0.055194   0.085322  -0.095251
    3  C  1  X   -0.056107  -0.098776  -0.015954  -0.061129  -0.012028
    4  C  1  Y   -0.651781   0.099952  -0.110393   0.054860   0.077094
    5  C  1  Z   -0.202994  -0.338059   0.638102   0.117831   0.266307
    6  C  2  S   -0.007059   0.015222   0.010920   0.016593  -0.006272
    7  C  2  S    0.051055  -0.092814  -0.065457  -0.110461   0.033831
    8  C  2  X    0.337416   0.048290   0.478788  -0.056118  -0.128532
    9  C  2  Y    0.239023   0.206102   0.224257   0.046446  -0.022989
   10  C  2  Z    0.089704   0.064385  -0.506136  -0.151793  -0.130836
   11  C  3  S   -0.083344   0.082345   0.014833   0.021665  -0.021351
   12  C  3  S    0.542188  -0.527111  -0.103731  -0.141138   0.128828
   13  C  3  X   -0.532513   0.377651   0.061306   0.038601   0.018006
   14  C  3  Y    0.031560  -0.219100  -0.071049  -0.064730   0.010643
   15  C  3  Z    0.227733   0.287465  -0.342881  -0.071865  -0.561035
   16  H  4  S    0.341599  -0.363588   0.471150   0.023709   0.180349
   17  H  5  S    0.696120   0.077004  -0.371438  -0.142233  -0.156589
   18  C  6  S   -0.043937  -0.122509   0.049138   0.017416  -0.079405
   19  C  6  S    0.300894   0.811508  -0.325920  -0.093969   0.571954
   20  C  6  X    0.201525  -0.113888  -0.259724   0.080182   0.373139
   21  C  6  Y   -0.162047  -0.371018  -0.045947   0.112183  -0.741360
   22  C  6  Z   -0.046615  -0.107775  -0.129221  -0.087781   0.458060
   23  H  7  S   -0.449128   0.683856  -0.066818   0.064512  -0.282055
   24  H  8  S   -0.559470   0.098213   0.304962   0.143289   0.381264
   25  C  9  S    0.020523   0.011145   0.004217  -0.005390   0.018800
   26  C  9  S   -0.139112  -0.083812  -0.047070   0.025339  -0.132903
   27  C  9  X    0.097827   0.025934  -0.482057   0.099520   0.183522
   28  C  9  Y    0.203528   0.176325   0.193053  -0.073587  -0.111134
   29  C  9  Z    0.325811   0.376231   0.457482   0.066544  -0.070692
   30  H 10  S   -0.112891   0.020314   0.375493   0.197503   0.095616
   31  H 11  S   -0.303616  -0.030647  -0.542855   0.012877   0.024137
   32  H 12  S   -0.093583  -0.525352  -0.072398   0.024820   0.157784
   33  H 13  S    0.296741   0.328673   0.545856  -0.007954  -0.081648
   34  B 14  S   -0.005704   0.073071   0.013756  -0.236803   0.123558
   35  B 14  S    0.017526  -0.414606  -0.060083   1.373328  -0.758881
   36  B 14  X   -0.004322   0.135908  -0.053870   0.009235   0.062272
   37  B 14  Y   -0.227382  -0.653870   0.017899  -0.448003  -0.391943
   38  B 14  Z    0.169251  -0.014598  -0.246737   0.366772   0.797196
   39  H 15  S   -0.004038  -0.002923   0.013681  -0.360820   0.130066
   40  H 16  S   -0.098695   0.292398   0.212802  -0.889588  -0.258302
   41  H 17  S   -0.131000  -0.296018  -0.042483  -0.849834   0.299340

                     41
                    0.9420
                     A   
    1  C  1  S   -0.010040
    2  C  1  S    0.061828
    3  C  1  X   -0.001883
    4  C  1  Y   -0.106400
    5  C  1  Z    0.052605
    6  C  2  S    0.004570
    7  C  2  S   -0.030607
    8  C  2  X   -0.006834
    9  C  2  Y   -0.071532
   10  C  2  Z    0.018174
   11  C  3  S    0.037980
   12  C  3  S   -0.242819
   13  C  3  X   -0.229301
   14  C  3  Y    0.278034
   15  C  3  Z   -0.127276
   16  H  4  S    0.050891
   17  H  5  S   -0.008124
   18  C  6  S   -0.007943
   19  C  6  S    0.040903
   20  C  6  X    0.215239
   21  C  6  Y    0.292212
   22  C  6  Z    0.778760
   23  H  7  S   -0.181231
   24  H  8  S    0.154002
   25  C  9  S    0.003562
   26  C  9  S   -0.027335
   27  C  9  X    0.113653
   28  C  9  Y   -0.053375
   29  C  9  Z   -0.112062
   30  H 10  S   -0.004423
   31  H 11  S    0.040902
   32  H 12  S    0.605429
   33  H 13  S   -0.120051
   34  B 14  S    0.021373
   35  B 14  S   -0.142147
   36  B 14  X    0.011253
   37  B 14  Y   -0.748649
   38  B 14  Z   -0.678571
   39  H 15  S    0.043043
   40  H 16  S    0.636098
   41  H 17  S   -0.675208
 ...... END OF RHF CALCULATION ......
 STEP CPU TIME =     0.09 TOTAL CPU TIME =          0.3 (      0.0 MIN)
 TOTAL WALL CLOCK TIME=          0.3 SECONDS, CPU UTILIZATION IS    93.94%

     ----------------------------------------------------------------
     PROPERTY VALUES FOR THE RHF   SELF-CONSISTENT FIELD WAVEFUNCTION
     ----------------------------------------------------------------

          -----------------
          ENERGY COMPONENTS
          -----------------

         WAVEFUNCTION NORMALIZATION =       1.0000000000

                ONE ELECTRON ENERGY =    -763.8662024633
                TWO ELECTRON ENERGY =     308.8494106399
           NUCLEAR REPULSION ENERGY =     237.2623827359
                                      ------------------
                       TOTAL ENERGY =    -217.7544090876

 ELECTRON-ELECTRON POTENTIAL ENERGY =     308.8494106399
  NUCLEUS-ELECTRON POTENTIAL ENERGY =    -980.1084178647
   NUCLEUS-NUCLEUS POTENTIAL ENERGY =     237.2623827359
                                      ------------------
             TOTAL POTENTIAL ENERGY =    -433.9966244890
               TOTAL KINETIC ENERGY =     216.2422154014
                 VIRIAL RATIO (V/T) =       2.0069930549

          ---------------------------------------
          MULLIKEN AND LOWDIN POPULATION ANALYSES
          ---------------------------------------

     ATOMIC MULLIKEN POPULATION IN EACH MOLECULAR ORBITAL

                      1          2          3          4          5

                  2.000000   2.000000   2.000000   2.000000   2.000000

    1            -0.000001  -0.000628   2.003025  -0.000424   0.000002
    2            -0.000693   2.003338  -0.000638   0.000002   0.000001
    3             0.000000   0.000002  -0.000419   2.003050  -0.000644
    4            -0.000000   0.000001  -0.000990  -0.000000  -0.000000
    5            -0.000000   0.000002  -0.000983   0.000000  -0.000000
    6            -0.000729   0.000001   0.000002  -0.000653   2.003795
    7            -0.000000  -0.000000   0.000002  -0.000989   0.000001
    8             0.000000   0.000000   0.000001  -0.000989   0.000001
    9             2.002694  -0.000747  -0.000000   0.000001  -0.000841
   10             0.000001  -0.000986   0.000000   0.000000   0.000000
   11             0.000001  -0.000983   0.000001  -0.000000  -0.000000
   12             0.000001  -0.000000   0.000000   0.000002  -0.000989
   13            -0.000933   0.000001  -0.000000  -0.000000   0.000002
   14            -0.000149  -0.000000   0.000000   0.000000  -0.001340
   15            -0.000192   0.000000  -0.000000   0.000000   0.000005
   16             0.000000  -0.000000  -0.000000  -0.000000   0.000003
   17             0.000000  -0.000000  -0.000000  -0.000000   0.000004

                      6          7          8          9         10

                  2.000000   2.000000   2.000000   2.000000   2.000000

    1             0.000000   0.269713   0.524549   0.109832   0.470679
    2            -0.000000   0.363326   0.198932   0.463744   0.266544
    3            -0.000003   0.240006   0.123349   0.547011   0.303550
    4            -0.000000   0.023790   0.080553   0.002745   0.173996
    5             0.000000   0.018871   0.087841   0.002770   0.152282
    6            -0.001127   0.361416   0.333728   0.210098   0.110008
    7            -0.000000   0.016173   0.010622   0.098483   0.076295
    8            -0.000002   0.018830   0.009684   0.086547   0.090223
    9            -0.000191   0.479266   0.334847   0.219620   0.125371
   10            -0.000000   0.032664   0.021214   0.079214   0.089912
   11            -0.000000   0.027934   0.023658   0.095346   0.066216
   12            -0.000006   0.025040   0.040412   0.028667   0.001153
   13            -0.000001   0.036286   0.047615   0.031357   0.019733
   14             2.004052   0.060686   0.113451   0.014503   0.033405
   15            -0.000444   0.020948   0.035663   0.009179   0.011652
   16            -0.001138   0.003039   0.005680   0.000645   0.000748
   17            -0.001140   0.002015   0.008202   0.000240   0.008233

                     11         12         13         14         15

                  2.000000   2.000000   2.000000   2.000000   2.000000

    1             0.080057   0.081466   0.157972   0.470810   0.082794
    2             0.181169   0.106766   0.362022   0.280854   0.400090
    3             0.185632   0.130333   0.199122   0.091467   0.467528
    4             0.000169   0.019030   0.015428   0.174520   0.017138
    5             0.000655   0.025512   0.037753   0.188538   0.005243
    6             0.324804   0.336175   0.250535   0.060216   0.091036
    7             0.058151   0.001958   0.089054   0.028651   0.169504
    8             0.039546   0.067136   0.010653   0.029667   0.209311
    9             0.511663   0.219628   0.322808   0.078517   0.078984
   10             0.054506   0.043581   0.013067   0.126969   0.198211
   11             0.023277   0.021159   0.172968   0.066630   0.130248
   12             0.108727   0.152749   0.098829   0.038190   0.028539
   13             0.294668   0.034170   0.090459   0.046583   0.023591
   14             0.095188   0.357177   0.093680   0.154665   0.040825
   15             0.023477   0.181292   0.017744   0.023796   0.048886
   16             0.008612   0.141997   0.008668   0.087170   0.005790
   17             0.009698   0.079872   0.059238   0.052756   0.002282

                     16         17         18         19         20

                  2.000000   2.000000   2.000000   2.000000   2.000000

    1             0.325291   0.234516   0.136020   0.364264   0.572981
    2             0.184730   0.254550   0.359917   0.195204   0.364368
    3             0.084742   0.210920   0.207804   0.391983   0.499390
    4             0.073771   0.029501   0.071201   0.191209   0.039776
    5             0.039313   0.120352   0.082094   0.118476   0.025481
    6             0.206583   0.324915   0.182799   0.145443   0.034149
    7             0.024760   0.028278   0.037274   0.001138   0.256049
    8             0.005454  -0.000013   0.007663   0.248492   0.015732
    9             0.194829   0.384831   0.338485   0.012264   0.026860
   10             0.002553   0.000506   0.155939   0.022461   0.022812
   11             0.054829   0.045959   0.001963   0.149178   0.034364
   12             0.077214   0.033364   0.059947   0.028136   0.030405
   13             0.065707   0.000965   0.158215   0.000002   0.003168
   14             0.331033   0.181095   0.099882   0.072660   0.038169
   15             0.000008   0.000166   0.001301   0.002155   0.001178
   16             0.080469   0.112116   0.032181   0.055180   0.021130
   17             0.248713   0.037979   0.067315   0.001754   0.013990

                     21         22         23

                  2.000000   2.000000   2.000000

    1             0.040667   0.055695   0.120378
    2             0.041037   0.042668   0.035057
    3             0.173776   0.126419   0.113328
    4             0.003380   0.002938   0.026784
    5             0.000681   0.026241   0.009345
    6             0.168848   0.257701   0.750280
    7             0.026632   0.002032   0.020591
    8             0.001818   0.025824   0.075152
    9             0.385861   0.080489   0.215409
   10             0.035521   0.013486   0.012777
   11             0.006693   0.009404   0.002502
   12             0.002792   0.186238   0.001304
   13             0.011164   0.020130   0.022799
   14             0.321333   0.449546   0.455278
   15             0.437081   0.162763   0.011531
   16             0.340687   0.165093   0.013561
   17             0.002028   0.373331   0.113923

               ----- POPULATIONS IN EACH AO -----
                             MULLIKEN      LOWDIN
              1  C  1  S      1.99214     1.98518
              2  C  1  S      1.18449     1.03466
              3  C  1  X      0.93476     0.97517
              4  C  1  Y      0.97408     1.00530
              5  C  1  Z      1.01420     1.03757
              6  C  2  S      1.99210     1.98516
              7  C  2  S      1.18357     1.03259
              8  C  2  X      0.99279     1.02103
              9  C  2  Y      0.92771     0.97062
             10  C  2  Z      1.00682     1.03160
             11  C  3  S      1.99213     1.98515
             12  C  3  S      1.18405     1.03433
             13  C  3  X      0.96619     0.99927
             14  C  3  Y      0.94521     0.98271
             15  C  3  Z      1.01078     1.03551
             16  H  4  S      0.94494     0.97658
             17  H  5  S      0.94047     0.97254
             18  C  6  S      1.99184     1.98528
             19  C  6  S      1.17683     1.01458
             20  C  6  X      0.87730     0.92582
             21  C  6  Y      1.04976     1.07152
             22  C  6  Z      1.05430     1.07116
             23  H  7  S      0.94466     0.97562
             24  H  8  S      0.94073     0.97350
             25  C  9  S      1.99286     1.98556
             26  C  9  S      1.22689     1.08403
             27  C  9  X      1.02304     1.04334
             28  C  9  Y      0.84501     0.86162
             29  C  9  Z      0.92284     0.93694
             30  H 10  S      0.92441     0.95959
             31  H 11  S      0.93135     0.96503
             32  H 12  S      0.94072     0.97137
             33  H 13  S      0.90568     0.94838
             34  B 14  S      1.98907     1.97888
             35  B 14  S      0.89005     0.85585
             36  B 14  X      0.40459     0.45605
             37  B 14  Y      0.79324     0.86163
             38  B 14  Z      0.83819     0.89665
             39  H 15  S      0.98819     0.97176
             40  H 16  S      1.08163     1.07073
             41  H 17  S      1.08043     1.07017

          ----- MULLIKEN ATOMIC OVERLAP POPULATIONS -----
          (OFF-DIAGONAL ELEMENTS NEED TO BE MULTIPLIED BY 2)

             1           2           3           4           5

    1    4.7571046
    2    0.3597544   4.7478167
    3    0.3597835  -0.0316805   4.7490754
    4    0.3840107  -0.0223456  -0.0209990   0.6334343
    5    0.3843539  -0.0197201  -0.0184638  -0.0238772   0.6226531
    6   -0.0316313  -0.0291985   0.3643566   0.0002288   0.0012935
    7   -0.0197051   0.0013598   0.3846893  -0.0047284   0.0005457
    8   -0.0222675   0.0000998   0.3854145   0.0017668  -0.0041315
    9   -0.0373877   0.3606461  -0.0328868   0.0000169   0.0014814
   10   -0.0202606   0.3842821  -0.0000175   0.0017640  -0.0040053
   11   -0.0185762   0.3841766   0.0012937  -0.0042551   0.0004749
   12    0.0009270   0.0010245  -0.0216453  -0.0000150  -0.0000202
   13    0.0009869  -0.0178311   0.0010107  -0.0000256  -0.0000219
   14    0.0019333  -0.0049519  -0.0194939  -0.0000297  -0.0000761
   15    0.0006459  -0.0104033   0.0012358  -0.0000059  -0.0000179
   16    0.0000074  -0.0001738  -0.0039031  -0.0000013  -0.0000032
   17   -0.0000209   0.0001319   0.0005760   0.0000004   0.0000008

             6           7           8           9          10

    6    4.8561949
    7   -0.0196715   0.6290324
    8   -0.0219111  -0.0242915   0.6293019
    9    0.3443095   0.0010483   0.0013714   4.8295612
   10    0.0007748  -0.0000154   0.0001344  -0.0201164   0.6092119
   11    0.0010325  -0.0000362  -0.0000155  -0.0204593  -0.0224191
   12    0.3903479  -0.0046819   0.0014074  -0.0199938  -0.0000187
   13   -0.0155269  -0.0000206  -0.0000321   0.3846417   0.0011839
   14    0.3624878   0.0011117  -0.0063028   0.0357186  -0.0014394
   15   -0.0310424  -0.0000284   0.0000358   0.1960219  -0.0050712
   16   -0.0112151   0.0000637   0.0001194  -0.0070108   0.0003886
   17   -0.0108063  -0.0000141   0.0000318  -0.0063149   0.0000293

            11          12          13          14          15

   11    0.6127388
   12   -0.0000326   0.6199498
   13   -0.0034415  -0.0040076   0.5784281
   14    0.0002585  -0.0210996  -0.0055191   3.6400740
   15    0.0006140   0.0018794  -0.0142080   0.1266824   0.7387946
   16   -0.0000009   0.0008265   0.0002190   0.4023023  -0.0084748
   17   -0.0000037  -0.0041327  -0.0001549   0.4034819  -0.0084677

            16          17

   16    0.7200787
   17   -0.0115905   0.7176876

          TOTAL MULLIKEN AND LOWDIN ATOMIC POPULATIONS
       ATOM         MULL.POP.    CHARGE          LOW.POP.     CHARGE
    1 C             6.099658   -0.099658         6.037861   -0.037861
    2 C             6.102987   -0.102987         6.040987   -0.040987
    3 C             6.098346   -0.098346         6.036968   -0.036968
    4 H             0.944939    0.055061         0.976581    0.023419
    5 H             0.940466    0.059534         0.972537    0.027463
    6 C             6.150023   -0.150023         6.068361   -0.068361
    7 H             0.944658    0.055342         0.975617    0.024383
    8 H             0.940731    0.059269         0.973504    0.026496
    9 C             6.010647   -0.010647         5.911486    0.088514
   10 H             0.924405    0.075595         0.959595    0.040405
   11 H             0.931349    0.068651         0.965029    0.034971
   12 H             0.940715    0.059285         0.971365    0.028635
   13 H             0.905681    0.094319         0.948382    0.051618
   14 B             4.915138    0.084862         5.049067   -0.049067
   15 H             0.988190    0.011810         0.971757    0.028243
   16 H             1.081632   -0.081632         1.070734   -0.070734
   17 H             1.080434   -0.080434         1.070168   -0.070168

          -------------------------------
          BOND ORDER AND VALENCE ANALYSIS     BOND ORDER THRESHOLD=0.050
          -------------------------------

                   BOND                       BOND                       BOND
  ATOM PAIR DIST  ORDER      ATOM PAIR DIST  ORDER      ATOM PAIR DIST  ORDER
    1   2  1.549  0.986        1   3  1.551  0.988        1   4  1.088  0.978
    1   5  1.087  0.977        2   9  1.542  0.978        2  10  1.087  0.973
    2  11  1.087  0.975        3   6  1.551  0.977        3   7  1.087  0.979
    3   8  1.087  0.977        6   9  1.512  0.985        6  12  1.082  0.968
    6  14  1.500  0.932        9  13  1.088  0.960        9  14  1.949  0.265
    9  15  1.500  0.625       14  15  1.493  0.327       14  16  1.157  0.965
   14  17  1.157  0.968

                       TOTAL       BONDED        FREE
      ATOM            VALENCE     VALENCE     VALENCE
    1 C                 3.962       3.962      -0.000
    2 C                 3.956       3.956      -0.000
    3 C                 3.962       3.962      -0.000
    4 H                 0.997       0.997       0.000
    5 H                 0.996       0.996      -0.000
    6 C                 3.916       3.916      -0.000
    7 H                 0.997       0.997       0.000
    8 H                 0.996       0.996      -0.000
    9 C                 3.876       3.876      -0.000
   10 H                 0.994       0.994      -0.000
   11 H                 0.995       0.995       0.000
   12 H                 0.996       0.996       0.000
   13 H                 0.991       0.991      -0.000
   14 B                 3.490       3.490      -0.000
   15 H                 1.000       1.000      -0.000
   16 H                 0.993       0.993      -0.000
   17 H                 0.994       0.994       0.000

          ---------------------
          ELECTROSTATIC MOMENTS
          ---------------------

 POINT   1           X           Y           Z (BOHR)    CHARGE
                -1.935539    0.731135   -0.212529       -0.00 (A.U.)
         DX          DY          DZ         /D/  (DEBYE)
     1.857444    1.778074   -0.977341    2.750789
 ...... END OF PROPERTY EVALUATION ......
 STEP CPU TIME =     0.03 TOTAL CPU TIME =          0.3 (      0.0 MIN)
 TOTAL WALL CLOCK TIME=          0.4 SECONDS, CPU UTILIZATION IS    94.44%

     ---------------------------------------------
     1ST AND 2ND INTEGRAL DERIVATIVE CONTRIBUTIONS
     ---------------------------------------------
 ...... END OF 1-ELECTRON GRAD+HESS+FOCKDER ......
 STEP CPU TIME =     0.11 TOTAL CPU TIME =          0.4 (      0.0 MIN)
 TOTAL WALL CLOCK TIME=          0.5 SECONDS, CPU UTILIZATION IS    95.74%

     ----------------------------------------------
     TWO ELECTRON INTEGRAL DERIVATIVE CONTRIBUTIONS
     ----------------------------------------------

      60129 WORDS REQUIRED,    996902 WORDS AVAILABLE
 THE COARSE/FINE SCHWARZ SCREENINGS SKIPPED       2970/       568 BLOCKS.
 THE NUMBER OF DERIVATIVE INTEGRAL BLOCKS COMPUTED WAS     34641
 STEP CPU TIME =     8.73 TOTAL CPU TIME =          9.2 (      0.2 MIN)
 TOTAL WALL CLOCK TIME=          9.2 SECONDS, CPU UTILIZATION IS    99.67%
 ...... END OF 2-ELECTRON GRAD+HESS+FOCKDER ......
 STEP CPU TIME =     0.00 TOTAL CPU TIME =          9.2 (      0.2 MIN)
 TOTAL WALL CLOCK TIME=          9.2 SECONDS, CPU UTILIZATION IS    99.67%

     -------------------------------------------
     COUPLED-PERTURBED CLOSED SHELL HARTREE-FOCK
     -------------------------------------------
 THE CPHF HAS     414 INDEPENDENT ORBITAL ROTATIONS.
 SOLVING FOR   51 NUCLEAR RESPONSES AND 0 ELECTRIC FIELD RESPONSES
           -FA- WILL USE     55311 WORDS,
           -TA- WILL USE    107195 WORDS,
          -FCK- WILL USE    175645 WORDS,
 -WXY- AND -YA- WILL USE    231696 WORDS,
               THERE ARE    996902 WORDS OF REPLICATED MEMORY AVAILABLE.
        TIME FOR -FA-   =        0.000
        TIME FOR -TA-   =        0.020
        TIME FOR -FCK-  =        0.070
 PRECONDITIONED CONJUGATE GRADIENT SOLVER     CONV. TOLERANCE=5.00E-05
 ITER    RESPONSE ERROR        IMPROVED
   1       3.73464E-01            51
   2       1.04886E-01            51
   3       2.73812E-02            51
   4       4.50564E-03            51
   5       1.44883E-03            51
   6       2.73694E-04            51
   7       5.39203E-05            51
   8       1.35651E-05             4
 THE CPHF HAS CONVERGED AFTER  8 ITERATIONS.
 IT REQUIRED   361 FOCK-LIKE BUILDS TO FIND THE  51 SYMMETRY UNIQUE RESPONSES.
        TIME FOR -YA-   =        0.490
 ...... DONE WITH CPHF CONTRIBUTIONS ......
 STEP CPU TIME =     0.59 TOTAL CPU TIME =          9.8 (      0.2 MIN)
 TOTAL WALL CLOCK TIME=          9.8 SECONDS, CPU UTILIZATION IS    99.69%

          PARAMETERS CONTROLLING GEOMETRY SEARCH ARE
          METHOD =QA                  UPHESS =POWELL  
          NNEG   =         1          NFRZ   =         0
          NSTEP  =        50          IFOLOW =         1
          HESS   =CALC                RESTAR =         F
          IHREP  =         5          HSSEND =         T
          NPRT   =         0          NPUN   =         0
          OPTTOL = 5.000E-04          RMIN   = 1.500E-03
          RMAX   = 1.000E-01          RLIM   = 7.000E-02
          DXMAX  = 2.000E-01          PURIFY =         F
          MOVIE  =         F          TRUPD  =         T
          TRMAX  = 3.000E-01          TRMIN  = 5.000E-02
          ITBMAT =         5          STPT   =         F
          STSTEP = 1.000E-02          PROJCT=          T

 THE GRADIENT AT THE INITIAL GEOMETRY IS KNOWN.
 PROCEEDING DIRECTLY TO THE GEOMETRY SEARCH...

          NSERCH=  0     ENERGY=    -217.7544091

                                 -----------------------
                                 GRADIENT (HARTREE/BOHR)
                                 -----------------------
        ATOM     ZNUC       DE/DX         DE/DY         DE/DZ
 --------------------------------------------------------------
    1  C            6.0    -0.0000185    -0.0000409    -0.0003336
    2  C            6.0    -0.0000654    -0.0000857     0.0001115
    3  C            6.0     0.0000641    -0.0000015    -0.0001068
    4  H            1.0     0.0000018     0.0000957     0.0000312
    5  H            1.0     0.0000019    -0.0000336     0.0000399
    6  C            6.0     0.0106883    -0.0492201     0.0377175
    7  H            1.0    -0.0000030    -0.0000337    -0.0000098
    8  H            1.0     0.0000089     0.0000168    -0.0000050
    9  C            6.0    -0.0135378     0.0665407    -0.0514411
   10  H            1.0     0.0000397     0.0000507     0.0000102
   11  H            1.0    -0.0000051    -0.0000367    -0.0000103
   12  H            1.0     0.0000243     0.0000653    -0.0000289
   13  H            1.0     0.0000433    -0.0000161    -0.0001010
   14  B            5.0    -0.0104191     0.0491341    -0.0376064
   15  H            1.0     0.0131299    -0.0665100     0.0516550
   16  H            1.0     0.0000201     0.0000720     0.0000506
   17  H            1.0     0.0000268     0.0000031     0.0000270

          MAXIMUM GRADIENT = 0.0665407    RMS GRADIENT = 0.0209659

 NSERCH:   0  E=     -217.7544090876  GRAD. MAX=  0.0665407  R.M.S.=  0.0209659

          FORCE CONSTANT MATRIX NOT UPDATED --- TAKING FIRST STEP
          THE FIRST FEW LOCAL MODES AND EIGENVALUES ARE

  MODE           1           2           3           4           5
         -0.096878    0.001116    0.004281    0.012512    0.028752
  MODE
   1     -0.017727   -0.009110    0.014133   -0.026079    0.027405
   2      0.036964   -0.037421   -0.014276   -0.036773    0.069109
   3      0.022120    0.153174   -0.048907   -0.005139   -0.100629
   4     -0.014966    0.019353   -0.070663   -0.000686   -0.055021
   5      0.043173   -0.037355   -0.084914   -0.009133   -0.022393
   6     -0.013403   -0.065830    0.097530   -0.010614   -0.126622
   7     -0.017496   -0.038765   -0.016579    0.037712    0.032633
   8      0.016828   -0.003985    0.029185   -0.103969    0.036228
   9      0.007280   -0.135657   -0.026816    0.002491   -0.068916
  10     -0.002866    0.022828    0.090572   -0.054542    0.022731
  11      0.018138    0.245755   -0.111111   -0.011337    0.382464
  12      0.011889    0.320201   -0.098658    0.007963    0.070991
  13     -0.003855   -0.040853    0.016611   -0.064905    0.069773
  14      0.028164   -0.270537    0.059070   -0.067961   -0.182528
  15      0.020626    0.363913   -0.115146    0.021897    0.125784
  16      0.033560   -0.007075   -0.040205    0.065173   -0.066490
  17      0.062427   -0.038197   -0.004543    0.006108   -0.028138
  18     -0.055636   -0.034912    0.022499   -0.213603   -0.049982
  19     -0.004813    0.124602    0.003982   -0.148444   -0.090518
  20      0.019596    0.044050    0.031223   -0.070229    0.021811
  21     -0.003867   -0.320248   -0.053463    0.282957    0.083081
  22     -0.018439   -0.293986   -0.031927    0.297005    0.251656
  23     -0.006861    0.014478    0.080080   -0.368735    0.067040
  24      0.000353   -0.227973   -0.025431    0.061673    0.010915
  25     -0.170008   -0.000753   -0.024858    0.057879   -0.060073
  26      0.298351   -0.029031    0.026963   -0.002437   -0.040088
  27     -0.274100   -0.066635   -0.127177   -0.070902   -0.047681
  28     -0.026858    0.182725   -0.401208   -0.041767   -0.362052
  29     -0.064432   -0.090284   -0.252702   -0.052688   -0.067990
  30     -0.027643   -0.109633    0.129486   -0.011493   -0.084333
  31      0.007435   -0.056886    0.088348    0.009439    0.108699
  32      0.014168    0.021703   -0.092544    0.035923   -0.169451
  33      0.010007   -0.168883    0.413920    0.047828    0.081185
  34     -0.090184   -0.031335   -0.140669    0.135184   -0.128488
  35     -0.057316   -0.151698   -0.083712    0.065631   -0.083513
  36      0.025485   -0.001968    0.081207   -0.259042   -0.016467
  37      0.043452   -0.023311   -0.080085    0.160698   -0.098107
  38     -0.071116   -0.021462    0.207638   -0.014250   -0.260504
  39      0.000351   -0.083733   -0.231757   -0.007853    0.016191
  40      0.554303    0.016228    0.110967   -0.075552    0.033716
  41      0.030568    0.078419    0.052445    0.127832    0.030433
  42     -0.002482    0.106618    0.051168   -0.024855    0.005599
  43     -0.259207    0.036329    0.099051   -0.043219   -0.010185
  44     -0.501054    0.016877   -0.009803   -0.022717    0.240498
  45      0.357143   -0.094463   -0.293012   -0.048144    0.112016
  46     -0.009147    0.144737    0.403170   -0.113970   -0.181574
  47      0.058407    0.246021    0.150234    0.526374    0.008046
  48     -0.049240    0.096661    0.065669   -0.080054   -0.010418
  49     -0.003183   -0.044726   -0.020641   -0.193925    0.505896
  50      0.073994    0.012666    0.016766   -0.001642   -0.001021
[...]
                   Z -0.00093752 -0.06455860 -0.02273009 -0.00297313 -0.00416783
 16   H            X  0.00106035  0.02082718 -0.00203631 -0.00560773  0.00482735
                   Y -0.01940521 -0.06689226 -0.01274352 -0.00451525  0.00586415
                   Z  0.00678602  0.03279751  0.00267836  0.00162746  0.00190491
 17   H            X -0.07744547  0.00695094 -0.00534351 -0.01063140 -0.00237890
                   Y  0.01930253 -0.00373763 -0.00080298  0.00171641  0.00331421
                   Z  0.00390082  0.05048922  0.01497937 -0.00034260 -0.01113991

 TRANS. SAYVETZ    X -0.00000008 -0.00000014 -0.00000018 -0.00000007  0.00000008
                   Y -0.00000000 -0.00000003  0.00000006  0.00000016  0.00000023
                   Z -0.00000058 -0.00000003 -0.00000013  0.00000003  0.00000013
               TOTAL  0.00000058  0.00000015  0.00000023  0.00000018  0.00000027

   ROT. SAYVETZ    X -0.00003489 -0.00000890  0.00002466 -0.00003421  0.00001917
                   Y -0.00014318 -0.00000452 -0.00002892 -0.00000779 -0.00000699
                   Z  0.00020104  0.00003855  0.00000952 -0.00000591  0.00000437
               TOTAL  0.00024927  0.00003982  0.00003918  0.00003558  0.00002087

                           41          42          43          44          45
       FREQUENCY:      2889.44     3167.66     3321.51     3609.16     3611.48  
        SYMMETRY:         A           A           A           A           A   
    REDUCED MASS:      1.05909     1.06244     1.13462     1.06737     1.06687
    IR INTENSITY:      0.71683     0.34907     0.41369     0.06392     0.01211

  1   C            X -0.00015074 -0.00001164 -0.00002485  0.00260362 -0.00215548
                   Y -0.00008143  0.00012238 -0.00016651 -0.00532111 -0.00660643
                   Z  0.00002272 -0.00029869  0.00042716 -0.00228056 -0.00347942
  2   C            X  0.00043603  0.00010897 -0.00001257 -0.00815847  0.06213916
                   Y -0.00108420 -0.00017570  0.00005730 -0.00316791  0.02688263
                   Z  0.00221002  0.00039270 -0.00014862  0.00241877 -0.01749549
  3   C            X -0.00023128  0.00000288  0.00003982 -0.05678096 -0.00685228
                   Y -0.00009736  0.00028689 -0.00011234  0.03357825  0.00441047
                   Z  0.00027349 -0.00003522  0.00008714 -0.02435625 -0.00283412
  4   H            X  0.00035868  0.00007708 -0.00000981  0.00252278  0.00630973
                   Y -0.00047461  0.00095137 -0.00004261  0.07294239  0.09301588
                   Z -0.00047788 -0.00070137  0.00051973 -0.01117577 -0.01381916
  5   H            X  0.00048654  0.00002968  0.00012685  0.00069035 -0.00690858
                   Y -0.00093338  0.00004967  0.00069976 -0.00777021 -0.00973244
                   Z -0.00018769  0.00268679 -0.00383606  0.04860802  0.06401879
  6   C            X  0.00394658  0.00000733  0.00019701  0.00246110  0.00042995
                   Y  0.00176935  0.00055582  0.00015815 -0.00047730 -0.00029783
                   Z -0.00304927 -0.00054064  0.00009552  0.00085844  0.00018545
  7   H            X  0.00036375  0.00066119 -0.00111156  0.18556446  0.02307778
                   Y -0.00166909 -0.00053032  0.00153539 -0.41457834 -0.05033888
                   Z -0.00038402 -0.00092500 -0.00126591  0.62273264  0.07626824
  8   H            X -0.00068833 -0.00040339  0.00046952  0.44166052  0.05099259
                   Y  0.00025192 -0.00078878  0.00012750  0.03339021  0.00338803
                   Z  0.00059779  0.00049799 -0.00051502 -0.34242739 -0.04020358
  9   C            X -0.01124417 -0.00024452 -0.00003812  0.00024763 -0.00291143
                   Y  0.00508438  0.00243934  0.00042918 -0.00028026  0.00062700
                   Z -0.00812605 -0.00305125  0.00053612  0.00003258  0.00087641
 10   H            X -0.00180759 -0.00126864  0.00017284  0.05459596 -0.40114921
                   Y -0.00036738 -0.00026889  0.00002860 -0.01189951  0.08407707
                   Z -0.00013089 -0.00077893 -0.00026063  0.05198404 -0.38551529
 11   H            X -0.00131772 -0.00043162  0.00046846  0.03755196 -0.29147737
                   Y -0.00979057 -0.00234144  0.00118907  0.05092313 -0.38959621
                   Z -0.00120490 -0.00014741 -0.00040717 -0.07705980  0.59267939
 12   H            X -0.00137568 -0.00161479 -0.00228798 -0.01443229 -0.00359500
                   Y -0.00071268  0.00026260 -0.00138386 -0.01263906 -0.00223468
                   Z  0.00956728 -0.00104091 -0.00048739 -0.01599597 -0.00390101
 13   H            X -0.00501090  0.00023548 -0.00123092 -0.00042447  0.02179731
                   Y -0.01278230 -0.00295324 -0.00147418  0.00122491 -0.02224984
                   Z  0.04116594  0.00517836  0.00329390  0.00028764 -0.01991395
 14   B            X -0.06526208 -0.05415100  0.00366742  0.00014000  0.00024205
                   Y  0.00931463 -0.03211354 -0.08075314 -0.00028222 -0.00024045
                   Z -0.01468528  0.03403862 -0.06810410  0.00003448 -0.00005366
 15   H            X  0.93068297  0.16025710  0.00157898  0.00091554 -0.00404176
                   Y -0.08481090 -0.01879584 -0.00583793  0.00040288 -0.00251741
                   Z  0.15763193  0.03284323 -0.00564119 -0.00031968  0.00056722
 16   H            X -0.06403873  0.23388631 -0.23414643 -0.00018434 -0.00043009
                   Y  0.06393152 -0.28441362  0.28852391  0.00019607  0.00105728
                   Z  0.10346780 -0.55736270  0.55300321  0.00059097  0.00122884
 17   H            X -0.05849231  0.20173926  0.19398716 -0.00001990 -0.00029975
                   Y -0.12096111  0.62118738  0.59441278  0.00117754 -0.00010128
                   Z -0.04640402  0.18998599  0.18767924  0.00014955  0.00002317

 TRANS. SAYVETZ    X  0.00000073  0.00000023 -0.00000004  0.00000043 -0.00000036
                   Y  0.00000087 -0.00000011  0.00000002  0.00000003  0.00000031
                   Z  0.00000046  0.00000015  0.00000000 -0.00000004 -0.00000010
               TOTAL  0.00000123  0.00000029  0.00000005  0.00000044  0.00000048

   ROT. SAYVETZ    X  0.00000205  0.00000573  0.00000111  0.00000701  0.00001097
                   Y -0.00000402 -0.00000068 -0.00000307  0.00000889 -0.00001637
                   Z -0.00000744  0.00000220  0.00000253  0.00000356 -0.00000674
               TOTAL  0.00000870  0.00000618  0.00000413  0.00001187  0.00002083

                           46          47          48          49          50
       FREQUENCY:      3633.70     3721.00     3731.05     3733.00     3749.35  
        SYMMETRY:         A           A           A           A           A   
    REDUCED MASS:      1.06842     1.09639     1.11054     1.11069     1.10139
    IR INTENSITY:      0.01107     0.37484     0.01137     0.02252     0.19945

  1   C            X  0.00021873 -0.00015800  0.00115209 -0.00048727 -0.00138843
                   Y -0.05104920 -0.00084011  0.00616613 -0.01037682 -0.01275018
                   Z -0.04881305  0.00191950 -0.00486228  0.00791360  0.01550534
  2   C            X -0.00760188 -0.00152748 -0.00684868 -0.02906905  0.00383487
                   Y -0.00196494  0.00769842  0.00805508  0.03033124 -0.00149870
                   Z  0.00494656 -0.01025528 -0.01994234 -0.07645664  0.00673021
  3   C            X  0.00664115  0.00002807 -0.03991310  0.01038514 -0.00508540
                   Y -0.00271506 -0.00105857 -0.02702094  0.00664930  0.00082821
                   Z  0.00568841 -0.00019883  0.07415567 -0.01795608  0.00653126
  4   H            X  0.03936097  0.00044610 -0.00190761  0.00675369  0.00772140
                   Y  0.67859646  0.01108483 -0.06059482  0.10062149  0.13234507
                   Z -0.11196825 -0.00147302  0.00943021 -0.01547227 -0.02032258
  5   H            X -0.04031289  0.00080795 -0.00564909  0.00258778  0.00949747
                   Y -0.11725203  0.00329572 -0.00928379  0.01515612  0.02659501
                   Z  0.64825597 -0.01774176  0.04354033 -0.07003269 -0.15865988
  6   C            X -0.00038614  0.01108077  0.00190472 -0.00474084 -0.04411018
                   Y -0.00009187  0.01507375  0.00090774 -0.00461318 -0.03944412
                   Z -0.00036169  0.01938160  0.00118379 -0.00632562 -0.05240581
  7   H            X -0.02038557 -0.00099281 -0.13085732  0.03082525 -0.00683030
                   Y  0.05151336  0.00247643  0.28501119 -0.06782181  0.01308192
                   Z -0.07275064 -0.00296493 -0.42592805  0.10066708 -0.02333770
  8   H            X -0.03234931 -0.00244901  0.59029074 -0.14528134  0.05908769
                   Y -0.00394275  0.00085085  0.03832831 -0.00920843  0.00321489
                   Z  0.02548997  0.00269332 -0.44620636  0.11041324 -0.04475916
  9   C            X  0.00059167  0.04536737 -0.00200788 -0.00413681  0.02043833
                   Y -0.00037563 -0.04858266  0.00211054  0.00640438 -0.01641698
                   Z -0.00045878 -0.04506638  0.00224526  0.00527083 -0.01591993
 10   H            X  0.02912622  0.06234239  0.13583264  0.52832214 -0.04995966
                   Y -0.00772690 -0.01304714 -0.02740973 -0.10484886  0.01051626
                   Z  0.02873700  0.05798048  0.12661945  0.49551316 -0.04614997
 11   H            X  0.03324739 -0.04047728 -0.05424339 -0.20101530  0.01390421
                   Y  0.04902257 -0.05370037 -0.07097306 -0.26372888  0.01698331
                   Z -0.07009786  0.07814955  0.10827094  0.40087774 -0.02777219
 12   H            X  0.00565348 -0.16292642 -0.01338812  0.05546042  0.44722909
                   Y  0.00609257 -0.16280672 -0.01363866  0.05515342  0.44184124
                   Z  0.00756688 -0.21820882 -0.01932109  0.07304634  0.59302376
 13   H            X -0.00836562 -0.49326769  0.02428031  0.05434327 -0.17441308
                   Y  0.00970450  0.54218815 -0.02618689 -0.06018341  0.18978024
                   Z  0.00875601  0.49812592 -0.02309648 -0.05428500  0.17465969
 14   B            X  0.00010081 -0.00023442 -0.00022407 -0.00001355  0.00133686
                   Y  0.00002774  0.00000060  0.00016315 -0.00025003 -0.00062693
                   Z -0.00021187  0.00104442  0.00003067 -0.00009097  0.00137446
 15   H            X -0.00001953 -0.01007819  0.00170000  0.00171700 -0.00762857
                   Y  0.00023104  0.00349546  0.00036373 -0.00136579 -0.00357002
                   Z -0.00009115 -0.00089610 -0.00066733  0.00180609  0.00754148
 16   H            X -0.00069192 -0.00240264  0.00080190  0.00027938  0.00032026
                   Y  0.00253166 -0.00330137 -0.00032676  0.00016386 -0.00157504
                   Z  0.00263946 -0.00000546 -0.00088723  0.00000864  0.00043728
 17   H            X  0.00002346 -0.00082547 -0.00011731  0.00012857 -0.00025389
                   Y  0.00005075 -0.00061358 -0.00060574  0.00070011  0.00256197
                   Z  0.00012655  0.00037613 -0.00053319  0.00094112  0.00134656

 TRANS. SAYVETZ    X  0.00000019  0.00000001  0.00000008  0.00000009 -0.00000006
                   Y -0.00000021  0.00000042 -0.00000003  0.00000000  0.00000003
                   Z  0.00000042 -0.00000005 -0.00000006  0.00000015  0.00000024
               TOTAL  0.00000050  0.00000042  0.00000011  0.00000018  0.00000025

   ROT. SAYVETZ    X  0.00004229 -0.00000000 -0.00000113  0.00000102  0.00000080
                   Y -0.00000020  0.00000006 -0.00000221 -0.00000327  0.00000034
                   Z  0.00000168  0.00000125 -0.00000053 -0.00000167 -0.00000075
               TOTAL  0.00004232  0.00000126  0.00000253  0.00000381  0.00000115

                           51
       FREQUENCY:      3751.78  
        SYMMETRY:         A   
    REDUCED MASS:      1.11113
    IR INTENSITY:      0.01465

  1   C            X  0.00642884
                   Y  0.06204407
                   Z -0.06324622
  2   C            X -0.00128821
                   Y  0.00331842
                   Z -0.00713443
  3   C            X  0.00215356
                   Y  0.00357612
                   Z -0.00703551
  4   H            X -0.03599171
                   Y -0.61568593
                   Z  0.09614996
  5   H            X -0.03941893
                   Y -0.11050943
                   Z  0.64957188
  6   C            X -0.01075798
                   Y -0.00962670
                   Z -0.01267188
  7   H            X  0.02084904
                   Y -0.03614550
                   Z  0.05690795
  8   H            X -0.04684087
                   Y -0.00440478
                   Z  0.03502166
  9   C            X  0.00544270
                   Y -0.00433465
                   Z -0.00434169
 10   H            X  0.04346203
                   Y -0.00963782
                   Z  0.04059120
 11   H            X -0.02943160
                   Y -0.03213685
                   Z  0.05213756
 12   H            X  0.10752002
                   Y  0.10583829
                   Z  0.14212530
 13   H            X -0.04568039
                   Y  0.04917116
                   Z  0.04528277
 14   B            X  0.00042146
                   Y -0.00036257
                   Z  0.00008980
 15   H            X -0.00231258
                   Y -0.00108512
                   Z  0.00203823
 16   H            X -0.00046501
                   Y  0.00222293
                   Z  0.00250073
 17   H            X  0.00014352
                   Y  0.00172895
                   Z  0.00105053

 TRANS. SAYVETZ    X  0.00000001
                   Y  0.00000002
                   Z  0.00000017
               TOTAL  0.00000017

   ROT. SAYVETZ    X  0.00001151
                   Y  0.00000049
                   Z  0.00000104
               TOTAL  0.00001156

 REFERENCE ON SAYVETZ CONDITIONS - A. SAYVETZ, J.CHEM.PHYS., 7, 383-389(1939).

 NOTE - THE MODES J,K ARE ORTHONORMALIZED ACCORDING TO
 SUM ON I   M(I) * (X(I,J)*X(I,K) + Y(I,J)*Y(I,K) + Z(I,J)*Z(I,K)) = DELTA(J,K)

  MODE FREQ(CM**-1)  SYMMETRY  RED. MASS  IR INTENS.
     1     740.095    A        1.720343    4.594599
     2       0.067    A        4.829124    0.000014
     3       0.036    A        4.833129    0.000005
     4       0.016    A        4.828768    0.000002
     5       2.822    A        3.075793    0.034593
     6       4.184    A        2.856929    0.095331
     7       5.037    A        2.662037    0.083213
     8     211.671    A        1.662214    0.007491
     9     285.981    A        1.634519    0.177629
    10     372.459    A        2.254641    0.157781
    11     490.263    A        1.336068    0.135401
    12     624.515    A        3.498340    0.836880
    13     734.519    A        2.049233    0.081663
    14     869.200    A        2.086390    0.041529
    15     889.722    A        4.018804    0.112788
    16     950.578    A        1.612232    0.151194
    17    1024.588    A        1.409783    0.091951
    18    1047.711    A        1.440468    0.113477
    19    1063.467    A        2.162309    0.022051
    20    1097.580    A        1.790758    0.117061
    21    1113.928    A        1.552273    0.011077
    22    1204.458    A        1.430641    0.249562
    23    1236.257    A        1.435447    0.143508
    24    1254.666    A        1.339828    0.084400
    25    1267.045    A        1.130362    0.175808
    26    1355.839    A        1.399430    0.140409
    27    1375.361    A        1.222533    0.521585
    28    1453.801    A        1.156410    2.368896
    29    1467.598    A        1.287643    0.014856
    30    1472.429    A        1.226455    0.097214
    31    1512.026    A        1.095013    0.104600
    32    1529.787    A        1.121830    0.528899
    33    1548.126    A        1.219977    0.025897
    34    1610.410    A        1.747611    0.020590
    35    1626.899    A        1.947153    0.083603
    36    1643.275    A        1.615701    0.012624
    37    1758.277    A        3.569125    0.110218
    38    1795.227    A        1.112427    0.003781
    39    1816.503    A        1.105574    0.005414
    40    1832.127    A        1.122986    0.008551
    41    2889.438    A        1.059085    0.716832
    42    3167.658    A        1.062444    0.349072
    43    3321.506    A        1.134622    0.413685
    44    3609.160    A        1.067366    0.063923
    45    3611.481    A        1.066871    0.012114
    46    3633.701    A        1.068423    0.011068
    47    3720.998    A        1.096387    0.374841
    48    3731.045    A        1.110539    0.011374
    49    3732.999    A        1.110690    0.022519
    50    3749.354    A        1.101394    0.199455
    51    3751.783    A        1.111127    0.014649

     -------------------------------
     THERMOCHEMISTRY AT T=  298.15 K
     -------------------------------

 USING IDEAL GAS, RIGID ROTOR, HARMONIC NORMAL MODE APPROXIMATIONS.
 P=  1.01325E+05 PASCAL.
 ALL FREQUENCIES ARE SCALED BY   1.00000
 THE MOMENTS OF INERTIA ARE (IN AMU*BOHR**2)
            346.14255           476.13144           608.58332
 THE ROTATIONAL SYMMETRY NUMBER IS  1.0
 THE ROTATIONAL CONSTANTS ARE (IN GHZ)
      5.20909     3.78695     2.96276
   1 IMAGINARY FREQUENCY VIBRATION(S) IS(ARE) EXCLUDED
     FROM THE FOLLOWING THERMOCHEMICAL ANALYSIS.
      8 -     51 VIBRATIONAL MODES ARE USED IN THERMOCHEMISTRY.
 THE HARMONIC ZERO POINT ENERGY IS (SCALED BY   1.000)
        0.178735 HARTREE/MOLECULE    39227.707342 CM**-1/MOLECULE 
      112.157756 KCAL/MOL              469.268051 KJ/MOL

               Q               LN Q
 ELEC.     1.00000E+00       0.000000
 TRANS.    2.92369E+07      17.190943
 ROT.      1.13368E+05      11.638399
 VIB.      3.26433E+00       1.183054
 TOT.      1.08198E+13      30.012396

              E         H         G         CV        CP        S
           KJ/MOL    KJ/MOL    KJ/MOL   J/MOL-K   J/MOL-K   J/MOL-K
 ELEC.      0.000     0.000     0.000     0.000     0.000     0.000
 TRANS.     3.718     6.197   -42.615    12.472    20.786   163.719
 ROT.       3.718     3.718   -28.851    12.472    12.472   109.238
 VIB.     475.090   475.090   466.335    53.402    53.402    29.362
 TOTAL    482.526   485.005   394.869    78.345    86.660   302.319
 VIB. THERMAL CORRECTION E(T)-E(0) = H(T)-H(0) =      5821.550 J/MOL

              E         H         G         CV        CP        S
         KCAL/MOL  KCAL/MOL  KCAL/MOL CAL/MOL-K CAL/MOL-K CAL/MOL-K
 ELEC.      0.000     0.000     0.000     0.000     0.000     0.000
 TRANS.     0.889     1.481   -10.185     2.981     4.968    39.130
 ROT.       0.889     0.889    -6.896     2.981     2.981    26.109
 VIB.     113.549   113.549   111.457    12.763    12.763     7.018
 TOTAL    115.327   115.919    94.376    18.725    20.712    72.256
 VIB. THERMAL CORRECTION E(T)-E(0) = H(T)-H(0) =      1391.384 CAL/MOL
 ......END OF NORMAL COORDINATE ANALYSIS......
 STEP CPU TIME =     0.01 TOTAL CPU TIME =         63.4 (      1.1 MIN)
 TOTAL WALL CLOCK TIME=         63.8 SECONDS, CPU UTILIZATION IS    99.44%
               580000  WORDS OF DYNAMIC MEMORY USED
 EXECUTION OF GAMESS TERMINATED NORMALLY Sat Nov 13 00:27:01 2021
 DDI: 263640 bytes (0.3 MB / 0 MWords) used by master data server.

 ----------------------------------------
 CPU timing information for all processes
 ========================================
 0: 61.957 + 1.445 = 63.403
 ----------------------------------------
 ddikick.x: exited gracefully.
----- accounting info -----
Files used on the master node chemcompute-node-0.novalocal were:
-rw-r--r--. 1 chemcomp chemcomp     1337 Nov 13 00:25 /scratch/305581/341450.F05
-rw-rw-r--. 1 chemcomp chemcomp  4320384 Nov 13 00:26 /scratch/305581/341450.F08
-rw-rw-r--. 1 chemcomp chemcomp 70451200 Nov 13 00:27 /scratch/305581/341450.F10
-rw-rw-r--. 1 chemcomp chemcomp   351696 Nov 13 00:27 /scratch/305581/341450.F18
Sat Nov 13 00:27:04 UTC 2021
0.182u 0.101s 1:07.68 0.4%	0+0k 8+216io 0pf+0w
Finishing Up...
Looking for IR data...
Looking for Raman data...
vibramans not found
Looking for thermodynamics data...
Looking for UV-Vis data...
305581
