----- GAMESS execution script 'rungms' -----
This job is running on host chemcompute-node-0.novalocal
under operating system Linux at Fri Nov 5 04:17:53 UTC 2021
SLURM has assigned the following compute nodes to this run:
chemcompute-node-0
Available scratch disk space (Kbyte units) at beginning of the job is
Filesystem     1K-blocks     Used Available Use% Mounted on
/dev/sda1       62903276 16913664  45989612  27% /
GAMESS temporary binary files will be written to /scratch/301028
GAMESS supplementary output files will be written to /data/slurm/335975
Copying input file 335975.inp to your run's scratch directory...
The generated host list is
chemcompute-node-0.novalocal

 Distributed Data Interface kickoff program.
 Initiating 1 compute processes on 1 nodes to run the following command:
 /data/gamess-2019R1-ddi/gamess.00.x 335975 

          ******************************************************
          *         GAMESS VERSION = 30 JUN 2019 (R1)          *
          *             FROM IOWA STATE UNIVERSITY             *
          * M.W.SCHMIDT, K.K.BALDRIDGE, J.A.BOATZ, S.T.ELBERT, *
          *   M.S.GORDON, J.H.JENSEN, S.KOSEKI, N.MATSUNAGA,   *
          *          K.A.NGUYEN, S.J.SU, T.L.WINDUS,           *
          *       TOGETHER WITH M.DUPUIS, J.A.MONTGOMERY       *
          *         J.COMPUT.CHEM.  14, 1347-1363(1993)        *
          **************** 64 BIT LINUX VERSION ****************

  SINCE 1993, STUDENTS AND POSTDOCS WORKING AT IOWA STATE UNIVERSITY
  AND ALSO IN THEIR VARIOUS JOBS AFTER LEAVING ISU HAVE MADE IMPORTANT
  CONTRIBUTIONS TO THE CODE:
     IVANA ADAMOVIC, CHRISTINE AIKENS, YURI ALEXEEV, POOJA ARORA,
     ANDREY ASADCHEV, ROB BELL, PRADIPTA BANDYOPADHYAY, JONATHAN BENTZ,
     COLLEEN BERTONI, BRETT BODE, KURT BRORSEN, CALEB CARLIN, GALINA CHABAN,
     WEI CHEN, CHEOL HO CHOI, PAUL DAY, ALBERT DEFUSCO, NUWAN DESILVA,
     TIM DUDLEY, DMITRI FEDOROV, ALEX FINDLATER, GRAHAM FLETCHER, 
     MARK FREITAG, KURT GLAESEMANN, ANASTASIA GUNINA,
     DAN KEMP, GRANT MERRILL, NORIYUKI MINEZAWA, JONATHAN MULLIN,
     TAKESHI NAGATA, SEAN NEDD, HEATHER NETZLOFF, BOSILJKA NJEGIC, RYAN OLSON,
     MIKE PAK, BUU PHAM,
     SPENCER PRUITT, LUKE ROSKOP, JIM SHOEMAKER, LYUDMILA SLIPCHENKO,
     TONY SMITH, SAROM SOK LEANG, JIE SONG, TETSUYA TAKETSUGU, SIMON WEBB,
     PENG XU, SOOHAENG YOO, FEDERICO ZAHARIEV

  ADDITIONAL CODE HAS BEEN PROVIDED BY COLLABORATORS IN OTHER GROUPS:
     IOWA STATE UNIVERSITY:
          JOE IVANIC, AARON WEST, LAIMUTIS BYTAUTAS, KLAUS RUEDENBERG
     UNIVERSITY OF TOKYO: KIMIHIKO HIRAO, TAKAHITO NAKAJIMA,
          TAKAO TSUNEDA, MUNEAKI KAMIYA, SUSUMU YANAGISAWA,
          KIYOSHI YAGI, MAHITO CHIBA, SEIKEN TOKURA, NAOAKI KAWAKAMI
     UNIVERSITY OF AARHUS: FRANK JENSEN
     UNIVERSITY OF IOWA: VISVALDAS KAIRYS, HUI LI
     NATIONAL INST. OF STANDARDS AND TECHNOLOGY: WALT STEVENS, DAVID GARMER
     UNIVERSITY OF PISA: BENEDETTA MENNUCCI, JACOPO TOMASI
     UNIVERSITY OF MEMPHIS: HENRY KURTZ, PRAKASHAN KORAMBATH
     UNIVERSITY OF ALBERTA: TOBY ZENG, MARIUSZ KLOBUKOWSKI
     UNIVERSITY OF NEW ENGLAND: MARK SPACKMAN
     MIE UNIVERSITY: HIROAKI UMEDA
     NAT. INST. OF ADVANCED INDUSTRIAL SCIENCE AND TECHNOLOGY: KAZUO KITAURA
     MICHIGAN STATE UNIVERSITY:
          KAROL KOWALSKI, MARTA WLOCH, JEFFREY GOUR, JESSE LUTZ,
          WEI LI, JUN SHEN, J. EMILIANO DEUSTUA, PIOTR PIECUCH
     UNIVERSITY OF MINNESOTA:
          YINAN SHU
     UNIVERSITY OF SILESIA: MONIKA MUSIAL, STANISLAW KUCHARSKI
     FACULTES UNIVERSITAIRES NOTRE-DAME DE LA PAIX:
          OLIVIER QUINET, BENOIT CHAMPAGNE
     UNIVERSITY OF CALIFORNIA - SANTA BARBARA: BERNARD KIRTMAN
     INSTITUTE FOR MOLECULAR SCIENCE:
          KAZUYA ISHIMURA, MICHIO KATOUDA, AND SHIGERU NAGASE
     UNIVERSITY OF NOTRE DAME: ANNA POMOGAEVA, DAN CHIPMAN
     KYUSHU UNIVERSITY:
          HARUYUKI NAKANO,
          FENG LONG GU, JACEK KORCHOWIEC, MARCIN MAKOWSKI, AND YURIKO AOKI,
          HIROTOSHI MORI AND EISAKU MIYOSHI
     PENNSYLVANIA STATE UNIVERSITY:
          TZVETELIN IORDANOV, CHET SWALINA, JONATHAN SKONE,
          SHARON HAMMES-SCHIFFER
     WASEDA UNIVERSITY:
          MASATO KOBAYASHI, TOMOKO AKAMA, TSUGUKI TOUMA,
          TAKESHI YOSHIKAWA, YASUHIRO IKABATA, JUNJI SEINO,
          YUYA NAKAJIMA, HIROMI NAKAI
     NANJING UNIVERSITY: SHUHUA LI
     UNIVERSITY OF NEBRASKA:
          PEIFENG SU, DEJUN SI, NANDUN THELLAMUREGE, YALI WANG, HUI LI
     UNIVERSITY OF ZURICH: ROBERTO PEVERATI, KIM BALDRIDGE
     N. COPERNICUS UNIVERSITY AND JACKSON STATE UNIVERSITY:
          MARIA BARYSZ
     UNIVERSITY OF COPENHAGEN: Jimmy Kromann, CASPER STEINMANN
     TOKYO INSTITUTE OF TECHNOLOGY: HIROYA NAKATA
     NAGOYA UNIVERSITY: YOSHIO NISHIMOTO, STEPHAN IRLE
     MOSCOW STATE UNIVERSITY: VLADIMIR MIRONOV
     A.N.NESMEYANOV INSTITUTE OF ORGANOELEMENT COMPOUNDS OF RUSSIAN ACADEMY OF SCIENCES:
          IGOR S. GERASIMOV

 EXECUTION OF GAMESS BEGUN Fri Nov  5 04:17:54 2021

            ECHO OF THE FIRST FEW INPUT CARDS -
 INPUT CARD>!File created by the GAMESS Input Deck Generator Plugin for Avogadro            
 INPUT CARD> $BASIS GBASIS=STO NGAUSS=3 $END                                                
 INPUT CARD> $CONTRL SCFTYP=RHF RUNTYP=OPTIMIZE NZVAR=1 mult=1  ICHARG=-1 $END              
 INPUT CARD> $STATPT hssend=.t. OPTTOL=0.0005 NSTEP=50 $END                                 
 INPUT CARD> $STATPT HESS=calc ihrep=5 $END                                                 
 INPUT CARD> $FORCE nvib=2 $END                                                             
 INPUT CARD> $ZMAT DLC=.t. auto=.t. nonvdw(1)=4,16 $END                                     
 INPUT CARD>!$ZMAT IFZMAT(1)=1,4,16 fvalue(1)=4.70 $END                                     
 INPUT CARD>                                                                                
 INPUT CARD> $DATA                                                                          
 INPUT CARD>Title                                                                           
 INPUT CARD>C1                                                                              
 INPUT CARD>C     6.0    -3.56068     1.16933     0.24543                                   
 INPUT CARD>C     6.0    -2.03567     1.24835     0.17255                                   
 INPUT CARD>C     6.0    -1.55219    -0.15025    -0.19993                                   
 INPUT CARD>C     6.0    -3.92716    -0.22847    -0.23384                                   
 INPUT CARD>C     6.0    -2.71642    -1.06633     0.13858                                   
 INPUT CARD>H     1.0    -2.67557    -2.01022    -0.41179                                   
 INPUT CARD>H     1.0    -2.72414    -1.29165     1.21165                                   
 INPUT CARD>H     1.0    -1.34339    -0.19440    -1.27574                                   
 INPUT CARD>H     1.0    -0.63628    -0.42763     0.32988                                   
 INPUT CARD>H     1.0    -4.84884    -0.59529     0.22617                                   
 INPUT CARD>H     1.0    -4.06558    -0.22813    -1.32172                                   
 INPUT CARD>H     1.0    -3.88729     1.30892     1.28280                                   
 INPUT CARD>H     1.0    -4.04236     1.94465    -0.35823                                   
 INPUT CARD>H     1.0    -1.70532     1.98551    -0.56665                                   
 INPUT CARD>H     1.0    -1.62932     1.55365     1.14338                                   
 INPUT CARD>Br    35.0    -5.83164    -4.36315     0.10267                                  
 INPUT CARD> $END                                                                           
    1000000 WORDS OF MEMORY AVAILABLE

     BASIS OPTIONS
     -------------
     GBASIS=STO          IGAUSS=       3      POLAR=NONE    
     NDFUNC=       0     NFFUNC=       0     DIFFSP=       F
     NPFUNC=       0      DIFFS=       F     BASNAM=        


     RUN TITLE
     ---------
 Title                                                                           

 THE POINT GROUP OF THE MOLECULE IS C1      
 THE ORDER OF THE PRINCIPAL AXIS IS     0

 ATOM      ATOMIC                      COORDINATES (BOHR)
           CHARGE         X                   Y                   Z
 C           6.0    -6.7287095300        2.2097132892        0.4637954492
 C           6.0    -3.8468585014        2.3590394368        0.3260722192
 C           6.0    -2.9332137809       -0.2839313297       -0.3778129167
 C           6.0    -7.4212563099       -0.4317456964       -0.4418935250
 C           6.0    -5.1332894676       -2.0150715125        0.2618782274
 H           1.0    -5.0560941610       -3.7987649750       -0.7781702645
 H           1.0    -5.1478781522       -2.4408645720        2.2896864930
 H           1.0    -2.5386389946       -0.3673627320       -2.4107990316
 H           1.0    -1.2023948515       -0.8081035241        0.6233828088
 H           1.0    -9.1629789583       -1.1249349832        0.4273993266
 H           1.0    -7.6828321812       -0.4311031896       -2.4976886325
 H           1.0    -7.3459129348        2.4735001398        2.4241404970
 H           1.0    -7.6389527437        3.6748556420       -0.6769565406
 H           1.0    -3.2225875214        3.7520698459       -1.0708132309
 H           1.0    -3.0789683463        2.9359727808        2.1606748998
 BR         35.0   -11.0202016590       -8.2451579433        0.1940181672

          INTERNUCLEAR DISTANCES (ANGS.)
          ------------------------------

                1 C          2 C          3 C          4 C          5 C     

   1 C       0.0000000    1.5287940 *  2.4441090 *  1.5224494 *  2.3921470 *
   2 C       1.5287940 *  0.0000000    1.5259673 *  2.4339032 *  2.4129480 *
   3 C       2.4441090 *  1.5259673 *  0.0000000    2.3764997 *  1.5196128 *
   4 C       1.5224494 *  2.4339032 *  2.3764997 *  0.0000000    1.5187486 *
   5 C       2.3921470 *  2.4129480 *  1.5196128 *  1.5187486 *  0.0000000  
   6 H       3.3652483    3.3718250    2.1831985 *  2.1846686 *  1.0933911 *
   7 H       2.7730494 *  2.8293674 *  2.1607450 *  2.1603357 *  1.0964980 *
   8 H       3.0149780    2.1583149 *  1.0967743 *  2.7861414 *  2.1554058 *
   9 H       3.3330959    2.1890532 *  1.0938599 *  3.3447475    2.1843800 *
  10 H       2.1848595 *  3.3638979    3.3537327    1.0934625 *  2.1855813 *
  11 H       2.1595781 *  2.9211934 *  2.7534719 *  1.0966509 *  2.1576117 *
  12 H       1.0964926 *  2.1598195 *  3.1273563    2.1599432 *  2.8847857 *
  13 H       1.0943227 *  2.1893757 *  3.2580073    2.1797235 *  3.3273019  
  14 H       2.1835715 *  1.0949670 *  2.1724187 *  3.1542103    3.2914131  
  15 H       2.1642938 *  1.0958281 *  2.1711071 *  3.2175698    3.0092698  
  16 BR      5.9821380    6.7751903    6.0128018    4.5646316    4.5359572  

                6 H          7 H          8 H          9 H         10 H     

   1 C       3.3652483    2.7730494 *  3.0149780    3.3330959    2.1848595 *
   2 C       3.3718250    2.8293674 *  2.1583149 *  2.1890532 *  3.3638979  
   3 C       2.1831985 *  2.1607450 *  1.0967743 *  1.0938599 *  3.3537327  
   4 C       2.1846686 *  2.1603357 *  2.7861414 *  3.3447475    1.0934625 *
   5 C       1.0933911 *  1.0964980 *  2.1554058 *  2.1843800 *  2.1855813 *
   6 H       0.0000000    1.7760235 *  2.4121185 *  2.6857716 *  2.6706034 *
   7 H       1.7760235 *  0.0000000    3.0491863    2.4255326 *  2.4434480 *
   8 H       2.4121185 *  3.0491863    0.0000000    1.7698634 *  3.8346612  
   9 H       2.6857716 *  2.4255326 *  1.7698634 *  0.0000000    4.2171705  
  10 H       2.6706034 *  2.4434480 *  3.8346612    4.2171705    0.0000000  
  11 H       2.4363795 *  3.0575316    2.7227872 *  3.8115196    1.7732079 *
  12 H       3.9187486    2.8497271 *  3.9086475    3.8069316    2.3805590 *
  13 H       4.1847318    3.8309091    3.5639583    4.2074444    2.7282281 *
  14 H       4.1147570    3.8652455    2.3207347 *  2.7874464 *  4.1437676  
  15 H       4.0267061    3.0494301    2.9982622 *  2.3608010 *  3.9780053  
  16 BR      3.9701041    4.5078271    6.2787641    6.5216338    3.8958846  

               11 H         12 H         13 H         14 H         15 H     

   1 C       2.1595781 *  1.0964926 *  1.0943227 *  2.1835715 *  2.1642938 *
   2 C       2.9211934 *  2.1598195 *  2.1893757 *  1.0949670 *  1.0958281 *
   3 C       2.7534719 *  3.1273563    3.2580073    2.1724187 *  2.1711071 *
   4 C       1.0966509 *  2.1599432 *  2.1797235 *  3.1542103    3.2175698  
   5 C       2.1576117 *  2.8847857 *  3.3273019    3.2914131    3.0092698  
   6 H       2.4363795 *  3.9187486    4.1847318    4.1147570    4.0267061  
   7 H       3.0575316    2.8497271 *  3.8309091    3.8652455    3.0494301  
   8 H       2.7227872 *  3.9086475    3.5639583    2.3207347 *  2.9982622 *
   9 H       3.8115196    3.8069316    4.2074444    2.7874464 *  2.3608010 *
  10 H       1.7732079 *  2.3805590 *  2.7282281 *  4.1437676    3.9780053  
  11 H       0.0000000    3.0294941    2.3769361 *  3.3228241    3.8970272  
  12 H       3.0294941    0.0000000    1.7666858 *  2.9392571 *  2.2754690 *
  13 H       2.3769361 *  1.7666858 *  0.0000000    2.3466709 *  2.8688806 *
  14 H       3.3228241    2.9392571 *  2.3466709 *  0.0000000    1.7653560 *
  15 H       3.8970272    2.2754690 *  2.8688806 *  1.7653560 *  0.0000000  
  16 BR      4.7165925    6.1111032    6.5728451    7.6013150    7.3315137  

               16 BR    

   1 C       5.9821380  
   2 C       6.7751903  
   3 C       6.0128018  
   4 C       4.5646316  
   5 C       4.5359572  
   6 H       3.9701041  
   7 H       4.5078271  
   8 H       6.2787641  
   9 H       6.5216338  
  10 H       3.8958846  
  11 H       4.7165925  
  12 H       6.1111032  
  13 H       6.5728451  
  14 H       7.6013150  
  15 H       7.3315137  
  16 BR      0.0000000  

  * ... LESS THAN  3.000


     ATOMIC BASIS SET
     ----------------
 THE CONTRACTED PRIMITIVE FUNCTIONS HAVE BEEN UNNORMALIZED
 THE CONTRACTED BASIS FUNCTIONS ARE NOW NORMALIZED TO UNITY

  SHELL TYPE  PRIMITIVE        EXPONENT          CONTRACTION COEFFICIENT(S)

 C         

      1   S       1            71.6168373    0.154328967295
      1   S       2            13.0450963    0.535328142282
      1   S       3             3.5305122    0.444634542185

      2   L       4             2.9412494   -0.099967229187    0.155916274999
      2   L       5             0.6834831    0.399512826089    0.607683718598
      2   L       6             0.2222899    0.700115468880    0.391957393099

 C         

      3   S       7            71.6168373    0.154328967295
      3   S       8            13.0450963    0.535328142282
      3   S       9             3.5305122    0.444634542185

      4   L      10             2.9412494   -0.099967229187    0.155916274999
      4   L      11             0.6834831    0.399512826089    0.607683718598
      4   L      12             0.2222899    0.700115468880    0.391957393099

 C         

      5   S      13            71.6168373    0.154328967295
      5   S      14            13.0450963    0.535328142282
      5   S      15             3.5305122    0.444634542185

      6   L      16             2.9412494   -0.099967229187    0.155916274999
      6   L      17             0.6834831    0.399512826089    0.607683718598
      6   L      18             0.2222899    0.700115468880    0.391957393099

 C         

      7   S      19            71.6168373    0.154328967295
      7   S      20            13.0450963    0.535328142282
      7   S      21             3.5305122    0.444634542185

      8   L      22             2.9412494   -0.099967229187    0.155916274999
      8   L      23             0.6834831    0.399512826089    0.607683718598
      8   L      24             0.2222899    0.700115468880    0.391957393099

 C         

      9   S      25            71.6168373    0.154328967295
      9   S      26            13.0450963    0.535328142282
      9   S      27             3.5305122    0.444634542185

     10   L      28             2.9412494   -0.099967229187    0.155916274999
     10   L      29             0.6834831    0.399512826089    0.607683718598
     10   L      30             0.2222899    0.700115468880    0.391957393099

 H         

     11   S      31             3.4252509    0.154328967295
     11   S      32             0.6239137    0.535328142282
     11   S      33             0.1688554    0.444634542185

 H         

     12   S      34             3.4252509    0.154328967295
     12   S      35             0.6239137    0.535328142282
     12   S      36             0.1688554    0.444634542185

 H         

     13   S      37             3.4252509    0.154328967295
     13   S      38             0.6239137    0.535328142282
     13   S      39             0.1688554    0.444634542185

 H         

     14   S      40             3.4252509    0.154328967295
     14   S      41             0.6239137    0.535328142282
     14   S      42             0.1688554    0.444634542185

 H         

     15   S      43             3.4252509    0.154328967295
     15   S      44             0.6239137    0.535328142282
     15   S      45             0.1688554    0.444634542185

 H         

     16   S      46             3.4252509    0.154328967295
     16   S      47             0.6239137    0.535328142282
     16   S      48             0.1688554    0.444634542185

 H         

     17   S      49             3.4252509    0.154328967295
     17   S      50             0.6239137    0.535328142282
     17   S      51             0.1688554    0.444634542185

 H         

     18   S      52             3.4252509    0.154328967295
     18   S      53             0.6239137    0.535328142282
     18   S      54             0.1688554    0.444634542185

 H         

     19   S      55             3.4252509    0.154328967295
     19   S      56             0.6239137    0.535328142282
     19   S      57             0.1688554    0.444634542185

 H         

     20   S      58             3.4252509    0.154328967295
     20   S      59             0.6239137    0.535328142282
     20   S      60             0.1688554    0.444634542185

 BR        

     21   S      61          2629.9974710    0.154328967295
     21   S      62           479.0573224    0.535328142282
     21   S      63           129.6516070    0.444634542185

     22   L      64           219.8350255   -0.099967229187    0.155916274999
     22   L      65            51.0849322    0.399512826089    0.607683718598
     22   L      66            16.6144055    0.700115468880    0.391957393099

     23   L      67            20.6524416   -0.219620369005    0.010587604289
     23   L      68             5.7619788    0.225595433605    0.595167005266
     23   L      69             2.2551994    0.900398426019    0.462001011973

     24   D      70            22.3657496    0.168659606013
     24   D      71             7.0128139    0.584798481745
     24   D      72             2.7316638    0.405677952331

     25   L      73             1.3960375   -0.308844121382   -0.121546859998
     25   L      74             0.5152256    0.019606411652    0.571522760389
     25   L      75             0.2275291    1.131034441567    0.549894947089

 TOTAL NUMBER OF BASIS SET SHELLS             =   25
 NUMBER OF CARTESIAN GAUSSIAN BASIS FUNCTIONS =   54
 NUMBER OF ELECTRONS                          =   76
 CHARGE OF MOLECULE                           =   -1
 SPIN MULTIPLICITY                            =    1
 NUMBER OF OCCUPIED ORBITALS (ALPHA)          =   38
 NUMBER OF OCCUPIED ORBITALS (BETA )          =   38
 TOTAL NUMBER OF ATOMS                        =   16
 THE NUCLEAR REPULSION ENERGY IS      325.4743082751

     $CONTRL OPTIONS
     ---------------
 SCFTYP=RHF          RUNTYP=OPTIMIZE     EXETYP=RUN     
 MPLEVL=       0     CITYP =NONE         CCTYP =NONE         VBTYP =NONE    
 DFTTYP=NONE         TDDFT =NONE    
 MULT  =       1     ICHARG=      -1     NZVAR =       1     COORD =UNIQUE  
 PP    =NONE         RELWFN=NONE         LOCAL =NONE         NUMGRD=       F
 ISPHER=      -1     NOSYM =       0     MAXIT =      30     UNITS =ANGS    
 PLTORB=       F     MOLPLT=       F     AIMPAC=       F     FRIEND=        
 NPRINT=       7     IREST =       0     GEOM  =INPUT   
 NORMF =       0     NORMP =       0     ITOL  =      20     ICUT  =       9
 INTTYP=BEST         GRDTYP=BEST         QMTTOL= 1.0E-06

     $SYSTEM OPTIONS
     ---------------
  REPLICATED MEMORY=     1000000 WORDS (ON EVERY NODE).
 DISTRIBUTED MEMDDI=           0 MILLION WORDS IN AGGREGATE,
 MEMDDI DISTRIBUTED OVER   1 PROCESSORS IS           0 WORDS/PROCESSOR.
 TOTAL MEMORY REQUESTED ON EACH PROCESSOR=     1000000 WORDS.
 TIMLIM=      525600.00 MINUTES, OR     365.0 DAYS.
 PARALL= F  BALTYP=  DLB     KDIAG=    0  COREFL= F
 MXSEQ2=     300 MXSEQ3=     150  mem10=         0

          ----------------
          PROPERTIES INPUT
          ----------------

     MOMENTS            FIELD           POTENTIAL          DENSITY
 IEMOM =       1   IEFLD =       0   IEPOT =       0   IEDEN =       0
 WHERE =COMASS     WHERE =NUCLEI     WHERE =NUCLEI     WHERE =NUCLEI  
 OUTPUT=BOTH       OUTPUT=BOTH       OUTPUT=BOTH       OUTPUT=BOTH    
 IEMINT=       0   IEFINT=       0                     IEDINT=       0
                                                       MORB  =       0
          EXTRAPOLATION IN EFFECT
          SOSCF IN EFFECT
 ORBITAL PRINTING OPTION: NPREO=     1    54     2     1

     -------------------------------
     INTEGRAL TRANSFORMATION OPTIONS
     -------------------------------
     NWORD  =            0
     CUTOFF = 1.0E-09     MPTRAN =       0
     DIRTRF =       F     AOINTS =DUP     

          ----------------------
          INTEGRAL INPUT OPTIONS
          ----------------------
 NOPK  =       1 NORDER=       0 SCHWRZ=       T


 -----------------------------------------------
  STATISTICS ON AUTOMATIC COORDINATE GENERATION 
 -----------------------------------------------
  NUMBER OF USER SPECIFIED BONDS                             1
  NUMBER OF BONDS                                           16
  NUMBER OF ANGLES                                          34
  NUMBER OF TORSIONS                                        51
  NUMBER OF EXTRA COORD.                                     0
  NUMBER OF EXTRA COORD. FOR CONSTRAINTS                     0
  NUMBER OF CONSTRAINED COORD.                               0

  TOTAL NUMBER OF PRIMITIVES                               101
 -----------------------------------------------

   --- ENCODED Z MATRIX ---
 COORD  TYPE   I   J   K   L   M   N
    1      1    1  12
    2      1    1   4
    3      1    1  13
    4      1    1   2
    5      1    2   3
    6      1    2  14
    7      1    2  15
    8      1    3   9
    9      1    3   8
   10      1    3   5
   11      1    4  11
   12      1    4  10
   13      1    4   5
   14      1    4  16
   15      1    5   7
   16      1    5   6
   17      2    1   4  16
   18      2    1   2   3
   19      2    1   4   5
   20      2    1   2  14
   21      2    1   2  15
   22      2    1   4  11
   23      2    1   4  10
   24      2    2   1  12
   25      2    2   3   9
   26      2    2   1  13
   27      2    2   3   5
   28      2    2   3   8
   29      2    2   1   4
   30      2    3   2  14
   31      2    3   5   6
   32      2    3   5   7
   33      2    3   5   4
   34      2    3   2  15
   35      2    4   5   6
   36      2    4   1  13
   37      2    4   5   7
   38      2    4   1  12
   39      2    5   4  16
   40      2    5   4  10
   41      2    5   4  11
   42      2    5   3   8
   43      2    5   3   9
   44      2    6   5   7
   45      2    8   3   9
   46      2   10   4  16
   47      2   10   4  11
   48      2   11   4  16
   49      2   12   1  13
   50      2   14   2  15
   51      3    1   4   5   6
   52      3    1   2   3   9
   53      3    1   4   5   7
   54      3    1   4   5   3
   55      3    1   2   3   5
   56      3    1   2   3   8
   57      3    2   1   4  10
   58      3    2   1   4  16
   59      3    2   1   4   5
   60      3    2   1   4  11
   61      3    2   3   5   6
   62      3    2   3   5   7
   63      3    2   3   5   4
   64      3    3   2   1  13
   65      3    3   2   1   4
   66      3    3   2   1  12
   67      3    3   5   4  16
   68      3    3   5   4  10
   69      3    3   5   4  11
   70      3    4   1   2  15
   71      3    4   1   2  14
   72      3    4   5   3   8
   73      3    4   5   3   9
   74      3    5   4   1  13
   75      3    5   4   1  12
   76      3    5   3   2  15
   77      3    5   3   2  14
   78      3    6   5   3   8
   79      3    6   5   3   9
   80      3    6   5   4  16
   81      3    6   5   4  10
   82      3    6   5   4  11
   83      3    7   5   3   8
   84      3    7   5   3   9
   85      3    7   5   4  16
   86      3    7   5   4  10
   87      3    7   5   4  11
   88      3    8   3   2  15
   89      3    8   3   2  14
   90      3    9   3   2  15
   91      3    9   3   2  14
   92      3   10   4   1  13
   93      3   10   4   1  12
   94      3   11   4   1  13
   95      3   11   4   1  12
   96      3   12   1   2  15
   97      3   12   1   2  14
   98      3   12   1   4  16
   99      3   13   1   2  15
  100      3   13   1   2  14
  101      3   13   1   4  16

          INDEP./SYM. INTERNAL COORDINATES
          --------------------------------
 CRD  1=  -0.1243 (  2) -0.1118 (  4)  0.1770 ( 10)  0.1785 ( 13) -0.3583 ( 17)
          -0.1919 ( 19)  0.1472 ( 22) -0.1198 ( 27)  0.2114 ( 29) -0.1453 ( 32)
          -0.1419 ( 38)  0.2944 ( 39)  0.1598 ( 40)  0.1135 ( 42) -0.2726 ( 46)
           0.1481 ( 48)  0.1060 ( 58)  0.3434 ( 67)  0.2587 ( 80)  0.2381 ( 85)
           0.1149 (101)
 CRD  2=   0.1255 (  4)  0.1567 (  5) -0.1613 ( 10) -0.3065 ( 13) -0.2516 ( 17)
           0.2712 ( 19) -0.1400 ( 23)  0.1054 ( 25)  0.1225 ( 26) -0.2456 ( 29)
           0.1480 ( 36) -0.2764 ( 39) -0.1312 ( 41)  0.2466 ( 48) -0.2401 ( 58)
           0.1152 ( 65)  0.2453 ( 67)  0.1054 ( 70)  0.1011 ( 71)  0.1980 ( 80)
           0.2216 ( 85) -0.1548 ( 98) -0.1629 (101)
 CRD  3=  -0.2127 (  2)  0.2531 (  4)  0.1259 (  8) -0.1279 ( 16)  0.2534 ( 18)
          -0.1310 ( 19) -0.1315 ( 21)  0.1132 ( 25)  0.1690 ( 26) -0.3659 ( 27)
           0.1597 ( 28) -0.1084 ( 30) -0.1914 ( 31)  0.3574 ( 33) -0.1395 ( 34)
          -0.2074 ( 37)  0.1049 ( 41)  0.1028 ( 42)  0.1333 ( 43)  0.1368 ( 44)
          -0.1346 ( 45)  0.1129 ( 52)  0.1021 ( 55)  0.1010 ( 56) -0.1290 ( 58)
          -0.1403 ( 60)
 CRD  4=  -0.3257 (  4) -0.1418 (  6) -0.1186 (  7) -0.1955 ( 10)  0.4318 ( 13)
          -0.1100 ( 14)  0.3315 ( 18)  0.1221 ( 19) -0.2439 ( 20) -0.1154 ( 23)
           0.1278 ( 24) -0.2408 ( 29) -0.1699 ( 33) -0.1165 ( 34)  0.1828 ( 35)
           0.1265 ( 36)  0.1484 ( 50) -0.1014 ( 56)  0.1175 ( 58)
 CRD  5=  -0.5546 (  2) -0.1826 (  3) -0.3221 (  4) -0.1134 (  5) -0.1507 ( 12)
          -0.3692 ( 13) -0.1358 ( 14) -0.1287 ( 16) -0.1016 ( 18)  0.1257 ( 29)
           0.1435 ( 30) -0.1477 ( 38)  0.1105 ( 49) -0.1049 ( 54)  0.1148 ( 59)
           0.1057 ( 62) -0.1109 ( 66)
 CRD  6=   0.2269 (  2) -0.5651 (  5) -0.1756 (  8) -0.2942 ( 10) -0.1541 ( 13)
          -0.1137 ( 16) -0.1260 ( 19)  0.1541 ( 21)  0.1000 ( 22) -0.2128 ( 25)
           0.1347 ( 27) -0.1223 ( 29) -0.2167 ( 34)  0.1385 ( 36)  0.1033 ( 39)
           0.1037 ( 45) -0.1072 ( 46)  0.1245 ( 61)  0.1163 ( 62)  0.1314 ( 63)
           0.1379 ( 70)  0.1034 ( 96) -0.1062 (100)
 CRD  7=  -0.3218 (  4) -0.3228 (  5) -0.1074 (  6) -0.1197 (  7)  0.3778 ( 10)
          -0.1747 ( 13)  0.1905 ( 18) -0.1901 ( 21) -0.1403 ( 24) -0.1772 ( 28)
          -0.1820 ( 30)  0.1494 ( 31)  0.1208 ( 38)  0.2164 ( 42)  0.1033 ( 43)
           0.1070 ( 50)  0.1010 ( 53)  0.1127 ( 54)  0.1587 ( 56) -0.1118 ( 61)
           0.1095 ( 66) -0.1219 ( 73) -0.1456 ( 79)  0.1522 ( 83)  0.1049 ( 89)
          -0.1085 ( 90)
 CRD  8=  -0.2901 (  2) -0.2059 (  5) -0.1112 (  9) -0.3660 ( 10)  0.1999 ( 20)
           0.1376 ( 25)  0.1374 ( 26)  0.1180 ( 27) -0.2141 ( 28) -0.1915 ( 30)
          -0.1674 ( 32)  0.1689 ( 34) -0.2040 ( 36)  0.1507 ( 37) -0.2201 ( 43)
           0.1205 ( 51)  0.1262 ( 54) -0.1306 ( 59) -0.1740 ( 62)  0.1787 ( 64)
          -0.1277 ( 71)
 CRD  9=   0.2533 (  2) -0.4224 (  4)  0.2147 (  5) -0.3317 ( 10) -0.1364 ( 13)
          -0.1390 ( 15) -0.1150 ( 19) -0.2042 ( 21)  0.1025 ( 23) -0.2157 ( 24)
           0.1300 ( 28)  0.1233 ( 33)  0.1131 ( 34)  0.1539 ( 38) -0.1147 ( 46)
           0.1682 ( 52) -0.1149 ( 64) -0.1253 ( 72)  0.1328 ( 75) -0.1033 ( 76)
          -0.1552 ( 88)  0.1437 ( 91)  0.1060 ( 95)  0.1447 ( 97) -0.1406 ( 99)
 CRD 10=  -0.1121 (  2) -0.1198 (  9)  0.1460 ( 13)  0.1650 ( 16) -0.1910 ( 22)
          -0.1711 ( 25)  0.1316 ( 26)  0.1364 ( 27)  0.1426 ( 32)  0.2272 ( 35)
          -0.1936 ( 36) -0.1638 ( 37)  0.1163 ( 38) -0.1101 ( 40)  0.2409 ( 41)
          -0.1557 ( 42) -0.1022 ( 46)  0.2508 ( 48)  0.1465 ( 55)  0.1086 ( 59)
          -0.1002 ( 60) -0.1251 ( 63) -0.1733 ( 65)  0.1396 ( 67) -0.1364 ( 71)
          -0.1653 ( 72) -0.1939 ( 73)  0.1704 ( 74)  0.1472 ( 75)  0.1125 ( 76)
           0.1518 ( 80)  0.1775 ( 85)
 CRD 11=   0.3046 (  1)  0.1160 (  8) -0.1295 ( 11) -0.2233 ( 13) -0.1266 ( 15)
           0.1020 ( 24) -0.1022 ( 29) -0.1711 ( 30)  0.1281 ( 34) -0.1364 ( 36)
           0.1756 ( 38) -0.1875 ( 41) -0.1209 ( 42)  0.1641 ( 43) -0.1674 ( 46)
           0.2516 ( 58)  0.2009 ( 60) -0.1072 ( 61)  0.1740 ( 64)  0.1657 ( 66)
          -0.1180 ( 68) -0.2045 ( 70) -0.2101 ( 71) -0.1290 ( 75)  0.1451 ( 76)
           0.1429 ( 77)  0.1131 ( 85) -0.1131 ( 93)  0.1034 ( 94)  0.1542 (101)
 CRD 12=   0.1421 (  1)  0.2097 (  6) -0.1463 (  7) -0.2897 (  8)  0.3206 (  9)
          -0.2666 ( 11)  0.1033 ( 16)  0.2218 ( 20) -0.1797 ( 21)  0.1584 ( 24)
          -0.1116 ( 31)  0.1199 ( 32)  0.2195 ( 35)  0.1030 ( 36) -0.1597 ( 37)
          -0.1261 ( 38)  0.1199 ( 42) -0.1292 ( 43)  0.1633 ( 52)  0.1663 ( 56)
           0.1386 ( 58)  0.1812 ( 61)  0.1561 ( 62) -0.1310 ( 72) -0.1211 ( 73)
          -0.1893 ( 76) -0.2126 ( 77)
 CRD 13=   0.3600 (  6) -0.4404 (  7)  0.2177 (  8) -0.2766 (  9)  0.1206 ( 15)
          -0.1266 ( 16)  0.1003 ( 23)  0.1133 ( 24)  0.2066 ( 25) -0.1936 ( 28)
           0.1231 ( 30) -0.1309 ( 34)  0.1043 ( 36) -0.1262 ( 43) -0.1322 ( 46)
           0.1488 ( 52)  0.1185 ( 55)  0.1294 ( 56)  0.1050 ( 58) -0.1639 ( 61)
          -0.1473 ( 62) -0.1718 ( 64) -0.1140 ( 65) -0.1689 ( 66)  0.1076 ( 72)
           0.1145 ( 73)
 CRD 14=  -0.2484 (  1)  0.1207 (  3)  0.1271 (  8) -0.2231 (  9) -0.4531 ( 11)
           0.2491 ( 12) -0.3942 ( 15)  0.1576 ( 16)  0.1156 ( 36) -0.1056 ( 37)
          -0.1281 ( 38) -0.1140 ( 42)  0.1282 ( 51)  0.1502 ( 54) -0.1312 ( 59)
          -0.1195 ( 63)  0.1034 ( 70)  0.1049 ( 71) -0.1117 ( 72) -0.1209 ( 73)
          -0.1648 ( 74) -0.1482 ( 75)  0.1055 ( 76)  0.1109 ( 77)
 CRD 15=  -0.2595 (  1) -0.1423 (  6)  0.1364 (  7)  0.2114 (  9) -0.1577 ( 11)
           0.1915 ( 12)  0.1125 ( 14)  0.3139 ( 15) -0.3116 ( 16) -0.2099 ( 22)
           0.2012 ( 23) -0.2015 ( 31)  0.1904 ( 32)  0.1063 ( 41) -0.1656 ( 46)
           0.1829 ( 48)  0.1959 ( 51)  0.1941 ( 53) -0.2135 ( 68) -0.2162 ( 69)
           0.1187 ( 73)  0.1715 ( 80)  0.1698 ( 85)
 CRD 16=   0.1676 (  1) -0.4891 (  3)  0.1241 ( 11)  0.3392 ( 12)  0.1408 ( 14)
          -0.1055 ( 23) -0.1559 ( 26)  0.2869 ( 40)  0.2004 ( 46)  0.2827 ( 57)
          -0.1283 ( 58)  0.1050 ( 60) -0.1028 ( 70) -0.1226 ( 74)  0.1359 ( 92)
           0.1985 ( 93) -0.2124 ( 98) -0.2751 (101)
 CRD 17=   0.1682 ( 11)  0.5641 ( 12) -0.7333 ( 14) -0.1015 ( 40) -0.1067 ( 46)
 CRD 18=   0.1389 (  1) -0.1102 (  8) -0.1305 ( 11)  0.1163 ( 16) -0.1520 ( 20)
           0.1472 ( 21) -0.1062 ( 24)  0.1198 ( 25)  0.1048 ( 26) -0.1147 ( 28)
           0.1439 ( 30) -0.1496 ( 34) -0.1467 ( 36)  0.1350 ( 38)  0.1505 ( 42)
          -0.1354 ( 43)  0.1156 ( 56)  0.1119 ( 64)  0.1061 ( 66)  0.1470 ( 78)
           0.1484 ( 79)  0.1526 ( 83)  0.1540 ( 84)  0.2119 ( 88)  0.2159 ( 89)
           0.1962 ( 90)  0.2001 ( 91)  0.1205 ( 92)  0.1255 ( 93)  0.1197 ( 94)
           0.1247 ( 95)  0.2031 ( 96)  0.1955 ( 97)  0.2089 ( 99)  0.2013 (100)
 CRD 19=   0.1006 (  3) -0.4327 (  6) -0.4557 (  7)  0.4119 (  8)  0.4181 (  9)
          -0.1584 ( 15)  0.1578 ( 45) -0.1641 ( 50) -0.1219 ( 89)  0.1373 ( 90)
 CRD 20=  -0.1559 (  1) -0.1502 (  3)  0.4244 (  6)  0.3595 (  7)  0.3875 (  8)
           0.3643 (  9) -0.2812 ( 15) -0.2429 ( 16)  0.1393 ( 45)  0.1428 ( 50)
           0.1160 ( 78) -0.1030 ( 84)  0.1105 ( 91)  0.1067 ( 96)
 CRD 21=   0.3045 (  1)  0.3710 (  3) -0.2347 (  8) -0.1467 (  9)  0.1773 ( 11)
           0.1486 ( 12) -0.4228 ( 15) -0.5008 ( 16) -0.1606 ( 44)  0.1096 ( 49)
           0.1064 ( 86)
 CRD 22=   0.4263 (  1)  0.4669 (  3) -0.1004 (  4)  0.2055 (  6)  0.1854 (  7)
           0.2177 (  8)  0.1264 (  9)  0.1218 ( 12)  0.2848 ( 15)  0.2383 ( 16)
           0.1092 ( 44)  0.1784 ( 49) -0.1206 ( 88)  0.1374 ( 93)  0.1107 ( 95)
          -0.1173 ( 97) -0.1288 (101)
 CRD 23=   0.1399 (  6) -0.2117 (  7) -0.1345 (  8) -0.5062 ( 11) -0.2052 ( 14)
          -0.2542 ( 16) -0.1152 ( 24)  0.1015 ( 28)  0.1354 ( 37) -0.1738 ( 47)
           0.1334 ( 57) -0.1129 ( 62) -0.1033 ( 68) -0.1478 ( 78) -0.1272 ( 79)
          -0.1370 ( 81) -0.2033 ( 83) -0.1826 ( 84) -0.1077 ( 86)  0.1774 ( 92)
           0.2084 ( 93)  0.1124 ( 97)
 CRD 24=  -0.1172 (  1)  0.2158 (  6) -0.1936 (  7) -0.1284 (  8)  0.1768 (  9)
           0.2172 ( 11)  0.3461 ( 12)  0.3470 ( 14)  0.1080 ( 15)  0.1185 ( 26)
           0.2338 ( 47)  0.1033 ( 48)  0.1026 ( 60) -0.1057 ( 69) -0.1030 ( 73)
          -0.1500 ( 78) -0.1578 ( 79) -0.1263 ( 82) -0.1144 ( 83) -0.1223 ( 84)
          -0.1475 ( 87)  0.1739 ( 94)  0.1027 ( 95)  0.1543 ( 96)  0.1357 ( 97)
           0.1504 ( 99)  0.1318 (100)  0.1466 (101)
 CRD 25=   0.3205 (  1) -0.2249 (  3) -0.1051 (  6)  0.1218 (  7) -0.1942 (  8)
           0.2267 (  9) -0.1276 ( 15)  0.1440 ( 16) -0.1544 ( 22)  0.1365 ( 23)
           0.1046 ( 31) -0.1177 ( 32) -0.1031 ( 35) -0.1024 ( 40)  0.1709 ( 41)
          -0.1337 ( 46)  0.1079 ( 48) -0.1379 ( 60) -0.1694 ( 81) -0.1646 ( 82)
          -0.1805 ( 86) -0.1757 ( 87)  0.1314 ( 88)  0.1415 ( 89)  0.1362 ( 90)
           0.1463 ( 91) -0.1524 ( 92) -0.1201 ( 93) -0.2236 ( 94) -0.1913 ( 95)
 CRD 26=   0.1872 (  1) -0.1552 (  3)  0.1588 (  6) -0.1633 (  7)  0.1631 (  8)
          -0.1771 (  9) -0.1798 ( 52) -0.1254 ( 55) -0.1567 ( 56) -0.1012 ( 57)
          -0.1250 ( 60)  0.1396 ( 61)  0.1123 ( 62)  0.1609 ( 64)  0.1178 ( 65)
           0.1508 ( 66)  0.1472 ( 70)  0.1441 ( 71)  0.1067 ( 73) -0.1502 ( 76)
          -0.1635 ( 77)  0.1383 ( 78)  0.1592 ( 79)  0.1110 ( 83)  0.1319 ( 84)
          -0.1814 ( 88) -0.1947 ( 89) -0.2046 ( 90) -0.2178 ( 91) -0.1140 ( 92)
          -0.1378 ( 94) -0.1076 ( 95)  0.1802 ( 96)  0.1771 ( 97)  0.1903 ( 99)
           0.1872 (100)
 CRD 27=  -0.1484 (  1)  0.1224 (  3) -0.1668 ( 11)  0.2017 ( 12)  0.1288 ( 14)
          -0.2371 ( 15)  0.2201 ( 16)  0.1138 ( 48) -0.1900 ( 51) -0.1600 ( 53)
          -0.1200 ( 54)  0.1091 ( 57)  0.1116 ( 59)  0.1203 ( 60) -0.1639 ( 68)
          -0.1763 ( 69)  0.1078 ( 72)  0.1377 ( 73)  0.1677 ( 74)  0.1258 ( 75)
           0.1007 ( 78)  0.1307 ( 79) -0.1287 ( 80) -0.2338 ( 81) -0.2463 ( 82)
           0.1201 ( 84) -0.2039 ( 86) -0.2163 ( 87)  0.1653 ( 92)  0.1233 ( 93)
           0.1765 ( 94)  0.1345 ( 95)
 CRD 28=  -0.2584 (  1)  0.2365 (  3)  0.2727 (  6) -0.2843 (  7) -0.2634 (  8)
           0.3007 (  9)  0.3049 ( 11) -0.1851 ( 12) -0.2864 ( 15)  0.2041 ( 16)
           0.1059 ( 40) -0.1297 ( 47)  0.1147 ( 57) -0.1121 ( 61) -0.1099 ( 68)
           0.1026 ( 73) -0.1155 ( 74)  0.1041 ( 77) -0.1045 ( 94)
 CRD 29=   0.1010 (  3) -0.1660 (  8) -0.1335 ( 10)  0.1498 ( 12) -0.1739 ( 16)
          -0.1544 ( 20) -0.1392 ( 21) -0.1360 ( 25) -0.1634 ( 28)  0.1673 ( 30)
           0.1651 ( 34) -0.1069 ( 35) -0.1630 ( 37)  0.1101 ( 41)  0.1101 ( 44)
           0.1976 ( 45) -0.1709 ( 49) -0.1271 ( 60)  0.1699 ( 62) -0.1399 ( 70)
           0.1006 ( 71)  0.1725 ( 72) -0.1118 ( 73) -0.1000 ( 75)  0.1007 ( 78)
          -0.1836 ( 79)  0.3376 ( 83) -0.1268 ( 88)  0.1080 ( 92) -0.2219 ( 95)
           0.1693 ( 97) -0.1730 ( 99)  0.1174 (101)
 CRD 30=   0.1418 (  2) -0.1002 (  5) -0.1654 (  6)  0.1154 ( 10)  0.1367 ( 12)
           0.1196 ( 14)  0.1242 ( 24)  0.1507 ( 25)  0.1366 ( 26)  0.1142 ( 28)
           0.1086 ( 31)  0.1172 ( 32) -0.1350 ( 36) -0.1530 ( 38) -0.1869 ( 42)
          -0.1799 ( 43) -0.1237 ( 47)  0.2338 ( 50)  0.1193 ( 52)  0.1326 ( 53)
          -0.1543 ( 56) -0.1188 ( 66)  0.1102 ( 69)  0.1089 ( 70)  0.1004 ( 73)
          -0.1304 ( 76) -0.1023 ( 78)  0.1246 ( 85)  0.1033 ( 86)  0.2199 ( 87)
          -0.2827 ( 88)  0.2066 ( 91)  0.1008 ( 92) -0.1345 ( 95) -0.1953 ( 97)
           0.1993 ( 99)
 CRD 31=   0.2333 (  2) -0.3589 (  4)  0.3569 (  5) -0.2216 ( 10)  0.1165 ( 12)
          -0.1262 ( 16)  0.1153 ( 20)  0.1579 ( 21) -0.1631 ( 30) -0.1254 ( 34)
          -0.1469 ( 36) -0.1212 ( 38)  0.1240 ( 42)  0.1127 ( 43) -0.1082 ( 52)
           0.1003 ( 56)  0.1074 ( 62)  0.1287 ( 64) -0.1038 ( 66) -0.1335 ( 71)
           0.1120 ( 76)  0.1360 ( 83)  0.2236 ( 88) -0.1569 ( 91) -0.1410 ( 95)
          -0.2338 ( 97)  0.1901 ( 99)
 CRD 32=   0.2079 (  2)  0.1142 (  3) -0.1078 (  5)  0.1316 (  8)  0.1711 ( 10)
          -0.3627 ( 13) -0.1205 ( 14) -0.1234 ( 21)  0.1712 ( 24)  0.1070 ( 26)
          -0.1608 ( 31) -0.1725 ( 32)  0.1129 ( 34)  0.1856 ( 35) -0.1083 ( 36)
           0.1470 ( 37)  0.1102 ( 51) -0.1143 ( 53)  0.1159 ( 56)  0.1744 ( 61)
           0.1001 ( 64) -0.1261 ( 75)  0.1249 ( 77)  0.1182 ( 79) -0.1523 ( 83)
          -0.1186 ( 84) -0.1317 ( 85) -0.1323 ( 86) -0.1630 ( 87)  0.2147 ( 89)
          -0.1046 ( 90)  0.1001 ( 91)  0.1547 ( 92) -0.1750 ( 95) -0.1457 ( 98)
           0.1086 (100)
 CRD 33=  -0.2035 (  3)  0.1080 (  4) -0.1148 ( 10)  0.1375 ( 13)  0.1918 ( 14)
          -0.1359 ( 20) -0.1098 ( 21)  0.1769 ( 23) -0.1279 ( 25)  0.1148 ( 26)
          -0.1653 ( 28)  0.1377 ( 30) -0.1113 ( 31) -0.1610 ( 38) -0.1464 ( 40)
          -0.1334 ( 41)  0.1070 ( 42)  0.1577 ( 43) -0.1242 ( 46)  0.1550 ( 49)
          -0.1101 ( 52) -0.1075 ( 57) -0.1288 ( 58) -0.1074 ( 62) -0.2148 ( 66)
          -0.1473 ( 68)  0.1053 ( 71)  0.1253 ( 72)  0.1507 ( 78)  0.1360 ( 82)
          -0.1826 ( 84)  0.1055 ( 89) -0.1894 ( 90)  0.1353 ( 94)  0.1718 ( 95)
          -0.2487 ( 96) -0.1067 ( 97)  0.1651 (100)
 CRD 34=  -0.1083 (  1)  0.1562 (  2)  0.1649 (  4)  0.2025 (  5) -0.1335 (  6)
          -0.1234 (  8) -0.1113 (  9)  0.2307 ( 10) -0.2017 ( 12)  0.1222 ( 13)
          -0.1709 ( 14) -0.2063 ( 16)  0.1695 ( 44)  0.1846 ( 45)  0.1359 ( 47)
           0.1437 ( 49)  0.1750 ( 50)  0.1105 ( 52) -0.1108 ( 53)  0.1139 ( 60)
           0.1100 ( 62)  0.1146 ( 70) -0.1152 ( 73) -0.1181 ( 74)  0.1856 ( 83)
          -0.1324 ( 85) -0.1231 ( 86) -0.2520 ( 87) -0.1683 ( 88)  0.1554 ( 91)
           0.1630 ( 95) -0.1222 ( 97)  0.1720 ( 99)
 CRD 35=   0.1172 (  1) -0.1884 (  7) -0.1567 (  8)  0.2194 (  9) -0.2523 ( 11)
          -0.1077 ( 20) -0.1215 ( 23) -0.1289 ( 24) -0.1450 ( 32)  0.1140 ( 37)
          -0.1011 ( 40) -0.1124 ( 42)  0.1292 ( 43)  0.1305 ( 47) -0.1887 ( 52)
          -0.1352 ( 56) -0.1986 ( 57) -0.1029 ( 58) -0.1058 ( 60)  0.2220 ( 68)
          -0.1278 ( 71)  0.1091 ( 72)  0.1671 ( 73)  0.1039 ( 74)  0.1251 ( 75)
           0.1069 ( 76)  0.1874 ( 77)  0.1534 ( 78)  0.2114 ( 79)  0.2103 ( 81)
           0.1186 ( 86) -0.1526 ( 97) -0.1140 ( 99) -0.2197 (100)
 CRD 36=   0.1808 (  1) -0.1805 (  6)  0.1581 (  7)  0.1175 (  9) -0.1106 ( 14)
          -0.2574 ( 15) -0.1199 ( 22)  0.1032 ( 30) -0.1295 ( 34) -0.1266 ( 35)
           0.1838 ( 44) -0.1124 ( 49)  0.2203 ( 51) -0.2370 ( 61) -0.1939 ( 64)
           0.1524 ( 70)  0.1032 ( 71)  0.1179 ( 73)  0.1729 ( 74) -0.1110 ( 76)
          -0.1045 ( 77) -0.1755 ( 78) -0.1091 ( 79)  0.1475 ( 80)  0.2076 ( 81)
           0.1017 ( 82) -0.1948 ( 90) -0.1884 ( 91)  0.1859 ( 92)  0.1556 ( 94)
           0.1650 (101)
 CRD 37=   0.2155 (  2) -0.1129 (  3) -0.3390 (  5)  0.1331 (  6)  0.1179 (  8)
           0.1663 ( 13) -0.1199 ( 16)  0.1122 ( 18)  0.1045 ( 27)  0.1086 ( 28)
          -0.1128 ( 29)  0.1105 ( 31)  0.1115 ( 34)  0.1124 ( 44) -0.1505 ( 45)
           0.1006 ( 47)  0.1455 ( 49) -0.1469 ( 50)  0.1516 ( 62)  0.1357 ( 64)
          -0.1176 ( 66)  0.1042 ( 68) -0.1491 ( 70)  0.1268 ( 71) -0.1556 ( 72)
           0.1218 ( 73) -0.2276 ( 78)  0.2640 ( 84) -0.2899 ( 96)  0.2392 (100)
 CRD 38=  -0.2520 (  4)  0.1421 (  6)  0.1422 (  7) -0.1972 (  8)  0.2646 ( 10)
           0.2050 ( 18)  0.1142 ( 25) -0.1910 ( 27) -0.1060 ( 42)  0.1980 ( 45)
          -0.2221 ( 50)  0.1191 ( 52) -0.1962 ( 56) -0.1145 ( 62)  0.1133 ( 71)
           0.1213 ( 72)  0.2159 ( 76) -0.1284 ( 77)  0.1534 ( 78) -0.1101 ( 84)
          -0.3621 ( 89)  0.2975 ( 90) -0.1539 ( 96)  0.1307 (100)
 CRD 39=   0.2844 (  2) -0.1779 ( 10) -0.1034 ( 12) -0.1267 ( 13) -0.2228 ( 14)
           0.1986 ( 16) -0.1170 ( 19) -0.1203 ( 22) -0.1283 ( 23)  0.1025 ( 32)
           0.1737 ( 33) -0.1146 ( 35)  0.1333 ( 39)  0.1427 ( 40) -0.1851 ( 44)
           0.1023 ( 46)  0.1288 ( 47)  0.1249 ( 48) -0.1002 ( 51)  0.1778 ( 53)
          -0.1440 ( 62) -0.2237 ( 69)  0.1435 ( 72)  0.1106 ( 78) -0.2652 ( 82)
          -0.1728 ( 84)  0.1815 ( 85)  0.3305 ( 86)  0.1211 (100)
 CRD 40=   0.1700 (  9)  0.1197 ( 11) -0.1212 ( 12)  0.2084 ( 15)  0.1051 ( 23)
           0.1039 ( 25)  0.1463 ( 31) -0.1139 ( 32)  0.1017 ( 35) -0.1308 ( 37)
          -0.1471 ( 41) -0.1310 ( 42)  0.1137 ( 43)  0.2265 ( 54)  0.1771 ( 55)
          -0.1195 ( 59) -0.2345 ( 63) -0.1068 ( 64)  0.1409 ( 67) -0.1734 ( 75)
           0.1095 ( 76)  0.1539 ( 78)  0.2455 ( 79) -0.1435 ( 80) -0.2344 ( 81)
          -0.1959 ( 82)  0.1466 ( 84) -0.1233 ( 90) -0.1537 ( 91)  0.1113 ( 92)
           0.1416 ( 94)
 CRD 41=   0.1911 (  1) -0.1202 (  4)  0.1324 (  6) -0.1426 (  7) -0.1035 (  9)
          -0.1577 ( 12)  0.1138 ( 17) -0.1005 ( 20)  0.1329 ( 21) -0.1107 ( 22)
           0.1145 ( 23)  0.1495 ( 26)  0.1133 ( 29) -0.1121 ( 30) -0.1211 ( 38)
          -0.1173 ( 49)  0.1666 ( 53) -0.1951 ( 55) -0.1079 ( 56) -0.1167 ( 57)
          -0.2140 ( 58) -0.1937 ( 59)  0.2195 ( 65)  0.1043 ( 66) -0.1264 ( 69)
          -0.1136 ( 75) -0.1341 ( 82)  0.1416 ( 90)  0.1419 ( 91)  0.1645 ( 92)
           0.2653 ( 94) -0.1043 ( 97) -0.1339 ( 98) -0.1683 ( 99) -0.2020 (100)
 CRD 42=  -0.1821 (  3)  0.1241 (  4)  0.1448 ( 11) -0.1927 ( 13)  0.1495 ( 19)
          -0.1061 ( 22) -0.1314 ( 24) -0.1020 ( 29)  0.1602 ( 36)  0.1009 ( 40)
          -0.1482 ( 47)  0.2420 ( 58) -0.1253 ( 59) -0.1995 ( 60)  0.1453 ( 65)
           0.1046 ( 71)  0.1200 ( 75)  0.1496 ( 92)  0.3231 ( 93) -0.1277 ( 94)
          -0.1138 ( 96)  0.4874 ( 98)  0.3138 (101)

 THE DETERMINANT OF THE G MATRIX IS 10**(   -10)


                     --------------------
                     INTERNAL COORDINATES
                     --------------------

                 - - ATOMS - -         COORDINATE      COORDINATE
 NO.   TYPE    I  J  K  L  M  N        (BOHR,RAD)       (ANG,DEG)
 ----------------------------------------------------------------
   1 STRETCH   1 12                     2.0720705       1.0964926
   2 STRETCH   1  4                     2.8770122       1.5224494
   3 STRETCH   1 13                     2.0679700       1.0943227
   4 STRETCH   1  2                     2.8890018       1.5287940
   5 STRETCH   2  3                     2.8836601       1.5259673
   6 STRETCH   2 14                     2.0691875       1.0949670
   7 STRETCH   2 15                     2.0708149       1.0958281
   8 STRETCH   3  9                     2.0670954       1.0938599
   9 STRETCH   3  8                     2.0726029       1.0967743
  10 STRETCH   3  5                     2.8716518       1.5196128
  11 STRETCH   4 11                     2.0723696       1.0966509
  12 STRETCH   4 10                     2.0663444       1.0934625
  13 STRETCH   4  5                     2.8700187       1.5187486
  14 STRETCH   4 16                     8.6259030       4.5646316
  15 STRETCH   5  7                     2.0720808       1.0964980
  16 STRETCH   5  6                     2.0662097       1.0933911
  17 BEND      1  4 16                  2.7113666     155.3498646
  18 BEND      1  2  3                  1.8549172     106.2789247
  19 BEND      1  4  5                  1.8105019     103.7341176
  20 BEND      1  2 14                  1.9475803     111.5881317
  21 BEND      1  2 15                  1.9199090     110.0026832
  22 BEND      1  4 11                  1.9202484     110.0221283
  23 BEND      1  4 10                  1.9589356     112.2387449
  24 BEND      2  1 12                  1.9130932     109.6121688
  25 BEND      2  3  9                  1.9600294     112.3014137
  26 BEND      2  1 13                  1.9564401     112.0957629
  27 BEND      2  3  5                  1.8290656     104.7977368
  28 BEND      2  3  8                  1.9141438     109.6723612
  29 BEND      2  1  4                  1.8468599     105.8172748
  30 BEND      3  2 14                  1.9354865     110.8952066
  31 BEND      3  5  6                  1.9602233     112.3125224
  32 BEND      3  5  7                  1.9254575     110.3205896
  33 BEND      3  5  4                  1.7962656     102.9184401
  34 BEND      3  2 15                  1.9327606     110.7390269
  35 BEND      4  5  6                  1.9634033     112.4947248
  36 BEND      4  1 13                  1.9507496     111.7697188
  37 BEND      4  5  7                  1.9259427     110.3483865
  38 BEND      4  1 12                  1.9209144     110.0602898
  39 BEND      5  4 16                  1.3845398      79.3282856
  40 BEND      5  4 10                  1.9646257     112.5647619
  41 BEND      5  4 11                  1.9220205     110.1236602
  42 BEND      5  3  8                  1.9178090     109.8823638
  43 BEND      5  3  9                  1.9613922     112.3794926
  44 BEND      6  5  7                  1.8917537     108.3895034
  45 BEND      8  3  9                  1.8812361     107.7868885
  46 BEND     10  4 16                  0.8140471      46.6414645
  47 BEND     10  4 11                  1.8870825     108.1218622
  48 BEND     11  4 16                  1.5915478      91.1889690
  49 BEND     12  1 13                  1.8760965     107.4924121
  50 BEND     14  2 15                  1.8740707     107.3763392
  51 TORSION   1  4  5  6              -2.8190598    -161.5202311
  52 TORSION   1  2  3  9              -2.4653777    -141.2557384
  53 TORSION   1  4  5  7               1.3490969      77.2975568
  54 TORSION   1  4  5  3              -0.7054144     -40.4172702
  55 TORSION   1  2  3  5              -0.3312695     -18.9803460
  56 TORSION   1  2  3  8               1.7265562      98.9243809
  57 TORSION   2  1  4 10               2.6265827     150.4921043
  58 TORSION   2  1  4 16               2.1474680     123.0408548
  59 TORSION   2  1  4  5               0.5010731      28.7093722
  60 TORSION   2  1  4 11              -1.5545105     -89.0668881
  61 TORSION   2  3  5  6               2.7565406     157.9381436
  62 TORSION   2  3  5  7              -1.4141258     -81.0234405
  63 TORSION   2  3  5  4               0.6407276      36.7109874
  64 TORSION   3  2  1 13              -2.2356638    -128.0941013
  65 TORSION   3  2  1  4              -0.1050426      -6.0184984
  66 TORSION   3  2  1 12               1.9657350     112.6283187
  67 TORSION   3  5  4 16               2.8731576     164.6198020
  68 TORSION   3  5  4 10              -2.8271225    -161.9821896
  69 TORSION   3  5  4 11               1.3489379      77.2884458
  70 TORSION   4  1  2 15              -2.1981522    -125.9448427
  71 TORSION   4  1  2 14               2.0069193     114.9880059
  72 TORSION   4  5  3  8              -1.4146019     -81.0507195
  73 TORSION   4  5  3  9               2.7739482     158.9355250
  74 TORSION   5  4  1 13               2.6353357     150.9936151
  75 TORSION   5  4  1 12              -1.5645077     -89.6396896
  76 TORSION   5  3  2 15               1.7534691     100.4663807
  77 TORSION   5  3  2 14              -2.4509850    -140.4310986
  78 TORSION   6  5  3  8               0.7012111      40.1764368
  79 TORSION   6  5  3  9              -1.3934241     -79.8373188
  80 TORSION   6  5  4 16               0.7595122      43.5168412
  81 TORSION   6  5  4 10               1.3424174      76.9148495
  82 TORSION   6  5  4 11              -0.7647075     -43.8145150
  83 TORSION   7  5  3  8               2.8137300     161.2148527
  84 TORSION   7  5  3  9               0.7190948      41.2010971
  85 TORSION   7  5  4 16              -1.3555164     -77.6653710
  86 TORSION   7  5  4 10              -0.7726112     -44.2673626
  87 TORSION   7  5  4 11              -2.8797361    -164.9967272
  88 TORSION   8  3  2 15              -2.4718905    -141.6288924
  89 TORSION   8  3  2 14              -0.3931594     -22.5263718
  90 TORSION   9  3  2 15              -0.3806391     -21.8090117
  91 TORSION   9  3  2 14               1.6980921      97.2935090
  92 TORSION  10  4  1 13              -1.5223399     -87.2236528
  93 TORSION  10  4  1 12               0.5610019      32.1430425
  94 TORSION  11  4  1 13               0.5797522      33.2173548
  95 TORSION  11  4  1 12               2.6630941     152.5840501
  96 TORSION  12  1  2 15              -0.1273746      -7.2980255
  97 TORSION  12  1  2 14              -2.2054884    -126.3651769
  98 TORSION  12  1  4 16               0.0818872       4.6917930
  99 TORSION  13  1  2 15               1.9544119     111.9795544
 100 TORSION  13  1  2 14              -0.1237019      -7.0875970
 101 TORSION  13  1  4 16              -2.0014546    -114.6749023

     ------------------------------------------
     THE POINT GROUP IS C1 , NAXIS= 0, ORDER= 1
     ------------------------------------------

     DIMENSIONS OF THE SYMMETRY SUBSPACES ARE
 A   =   54

 ..... DONE SETTING UP THE RUN .....
 STEP CPU TIME =     0.04 TOTAL CPU TIME =          0.0 (      0.0 MIN)
 TOTAL WALL CLOCK TIME=          0.1 SECONDS, CPU UTILIZATION IS    66.67%


          -----------------------------
          STATIONARY POINT LOCATION RUN
          -----------------------------

 OBTAINING INITIAL HESSIAN, HESS=CALC    

     ---------------------------------
     HESSIAN MATRIX CONTROL PARAMETERS
     ---------------------------------
     METHOD=ANALYTIC   NVIB  =       2   VIBSIZ= 0.01000
     RDHESS=       F   PURIFY=       F   PRTIFC=       F
     VIBANL=       F   DECOMP=       F   PROJCT=       F
     SCLFAC= 1.00000   PRTSCN=       F   NPRT  =       0
     PULCOR=       F   NPUN  =       0   REDOVB=       T
     HSSTYP=GENERAL 
 Old integral subroutine is used

     ------------------------------
     CPHF RESPONSE SOLUTION OPTIONS
     ------------------------------
     POLAR  =       F     NWORD  =       0
     CPHF   =AO      

          ********************
          1 ELECTRON INTEGRALS
          ********************
 ...... END OF ONE-ELECTRON INTEGRALS ......
 STEP CPU TIME =     0.01 TOTAL CPU TIME =          0.0 (      0.0 MIN)
 TOTAL WALL CLOCK TIME=          0.1 SECONDS, CPU UTILIZATION IS    71.43%

          -------------
          GUESS OPTIONS
          -------------
          GUESS =HUCKEL            NORB  =       0          NORDER=       0
          MIX   =       F          PRTMO =       F          PUNMO =       F
          TOLZ  = 1.0E-08          TOLE  = 1.0E-05
          SYMDEN=       F          PURIFY=       F

 INITIAL GUESS ORBITALS GENERATED BY HUCKEL   ROUTINE.
 HUCKEL GUESS REQUIRES     43608 WORDS.

 SYMMETRIES FOR INITIAL GUESS ORBITALS FOLLOW.   BOTH SET(S).
    38 ORBITALS ARE OCCUPIED (   19 CORE ORBITALS).
    20=A       21=A       22=A       23=A       24=A       25=A       26=A   
    27=A       28=A       29=A       30=A       31=A       32=A       33=A   
    34=A       35=A       36=A       37=A       38=A       39=A       40=A   
    41=A       42=A       43=A       44=A       45=A       46=A       47=A   
    48=A   
 ...... END OF INITIAL ORBITAL SELECTION ......
 STEP CPU TIME =     0.02 TOTAL CPU TIME =          0.1 (      0.0 MIN)
 TOTAL WALL CLOCK TIME=          0.1 SECONDS, CPU UTILIZATION IS    77.78%

                    ----------------------
                    AO INTEGRAL TECHNOLOGY
                    ----------------------
     S,P,L SHELL ROTATED AXIS INTEGRALS, REPROGRAMMED BY
        KAZUYA ISHIMURA (IMS) AND JOSE SIERRA (SYNSTAR).
     S,P,D,L SHELL ROTATED AXIS INTEGRALS PROGRAMMED BY
        KAZUYA ISHIMURA (INSTITUTE FOR MOLECULAR SCIENCE).
     S,P,D,F,G SHELL TO TOTAL QUARTET ANGULAR MOMENTUM SUM 5,
        ERIC PROGRAM BY GRAHAM FLETCHER (ELORET AND NASA ADVANCED
        SUPERCOMPUTING DIVISION, AMES RESEARCH CENTER).
     S,P,D,F,G,L SHELL GENERAL RYS QUADRATURE PROGRAMMED BY
        MICHEL DUPUIS (PACIFIC NORTHWEST NATIONAL LABORATORY).

          --------------------
          2 ELECTRON INTEGRALS
          --------------------

 THE -PK- OPTION IS OFF, THE INTEGRALS ARE NOT IN SUPERMATRIX FORM.
 STORING   15000 INTEGRALS/RECORD ON DISK, USING 12 BYTES/INTEGRAL.
 TWO ELECTRON INTEGRAL EVALUATION REQUIRES   90721 WORDS OF MEMORY.
 SCHWARZ INEQUALITY OVERHEAD:      1403 INTEGRALS, T=        0.00
 II,JST,KST,LST =  1  1  1  1 NREC =         1 INTLOC =    1
 II,JST,KST,LST =  2  1  1  1 NREC =         1 INTLOC =    2
 II,JST,KST,LST =  3  1  1  1 NREC =         1 INTLOC =   34
 II,JST,KST,LST =  4  1  1  1 NREC =         1 INTLOC =  135
 II,JST,KST,LST =  5  1  1  1 NREC =         1 INTLOC = 1346
 II,JST,KST,LST =  6  1  1  1 NREC =         1 INTLOC = 1915
 II,JST,KST,LST =  7  1  1  1 NREC =         1 INTLOC = 6789
 II,JST,KST,LST =  8  1  1  1 NREC =         1 INTLOC = 8476
 II,JST,KST,LST =  9  1  1  1 NREC =         2 INTLOC = 5903
 II,JST,KST,LST = 10  1  1  1 NREC =         2 INTLOC = 9752
 II,JST,KST,LST = 11  1  1  1 NREC =         4 INTLOC = 5192
 II,JST,KST,LST = 12  1  1  1 NREC =         4 INTLOC =13791
 II,JST,KST,LST = 13  1  1  1 NREC =         5 INTLOC = 8453
 II,JST,KST,LST = 14  1  1  1 NREC =         6 INTLOC = 4234
 II,JST,KST,LST = 15  1  1  1 NREC =         7 INTLOC = 1217
 II,JST,KST,LST = 16  1  1  1 NREC =         7 INTLOC =14494
 II,JST,KST,LST = 17  1  1  1 NREC =         8 INTLOC =14172
 II,JST,KST,LST = 18  1  1  1 NREC =        10 INTLOC =  316
 II,JST,KST,LST = 19  1  1  1 NREC =        11 INTLOC = 3033
 II,JST,KST,LST = 20  1  1  1 NREC =        12 INTLOC = 7424
 II,JST,KST,LST = 21  1  1  1 NREC =        13 INTLOC =13603
 II,JST,KST,LST = 22  1  1  1 NREC =        13 INTLOC =14976
 II,JST,KST,LST = 23  1  1  1 NREC =        14 INTLOC =12651
 II,JST,KST,LST = 24  1  1  1 NREC =        16 INTLOC =14776
 II,JST,KST,LST = 25  1  1  1 NREC =        21 INTLOC = 9214
 SCHWARZ INEQUALITY TEST SKIPPED       21935 INTEGRAL BLOCKS.
 TOTAL NUMBER OF NONZERO TWO-ELECTRON INTEGRALS =              418945
         28 INTEGRAL RECORDS WERE STORED ON DISK FILE  8.
  ...... END OF TWO-ELECTRON INTEGRALS .....
 STEP CPU TIME =     0.12 TOTAL CPU TIME =          0.2 (      0.0 MIN)
 TOTAL WALL CLOCK TIME=          0.2 SECONDS, CPU UTILIZATION IS    90.48%

          --------------------------
                 RHF SCF CALCULATION
          --------------------------

     NUCLEAR ENERGY =       325.4743082751
     MAXIT =   30     NPUNCH=    2
     EXTRAP=T  DAMP=F  SHIFT=F  RSTRCT=F  DIIS=F  DEM=F  SOSCF=T
     DENSITY MATRIX CONV=  1.00E-05
     SOSCF WILL OPTIMIZE     608 ORBITAL ROTATIONS, SOGTOL=   0.250
     MEMORY REQUIRED FOR RHF ITERS=     53600 WORDS.

 ITER EX DEM     TOTAL ENERGY        E CHANGE  DENSITY CHANGE     ORB. GRAD
   1  0  0    -2738.2445417131 -2738.2445417131  11.895927368   0.000000000
          ---------------START SECOND ORDER SCF---------------
   2  1  0    -2738.7347962550    -0.4902545419   0.185649213   0.033799374
   3  2  0    -2738.7418192149    -0.0070229599   0.023036872   0.005932954
   4  3  0    -2738.7422469333    -0.0004277184   0.009523262   0.001731011
   5  4  0    -2738.7422489177    -0.0000019845   0.000283359   0.000041625
   6  5  0    -2738.7422489769    -0.0000000591   0.000130856   0.000026911
   7  6  0    -2738.7422489784    -0.0000000016   0.000021010   0.000003519
   8  7  0    -2738.7422489785    -0.0000000001   0.000000478   0.000000254
   9  8  0    -2738.7422489785     0.0000000000   0.000000800   0.000000153

          -----------------
          DENSITY CONVERGED
          -----------------
     TIME TO FORM FOCK OPERATORS=       0.1 SECONDS (       0.0 SEC/ITER)
     TIME TO SOLVE SCF EQUATIONS=       0.0 SECONDS (       0.0 SEC/ITER)

 FINAL RHF ENERGY IS    -2738.7422489785 AFTER   9 ITERATIONS

          ------------
          EIGENVECTORS
          ------------

                      1          2          3          4          5
                 -484.1738   -63.0981   -57.2272   -57.2272   -57.2272
                     A          A          A          A          A   
    1  C  1  S    0.000000   0.000000  -0.000000   0.000000   0.000000
    2  C  1  S   -0.000000  -0.000004   0.000001   0.000000  -0.000000
    3  C  1  X    0.000000   0.000002  -0.000000  -0.000000   0.000000
    4  C  1  Y    0.000000   0.000002  -0.000000   0.000000   0.000000
    5  C  1  Z   -0.000000  -0.000000  -0.000000  -0.000000  -0.000000
    6  C  2  S   -0.000000  -0.000000   0.000000   0.000000   0.000000
    7  C  2  S    0.000000   0.000001  -0.000000  -0.000000  -0.000000
    8  C  2  X   -0.000000  -0.000001   0.000000   0.000000  -0.000000
    9  C  2  Y   -0.000000  -0.000001   0.000000   0.000000   0.000000
   10  C  2  Z   -0.000000  -0.000000   0.000000  -0.000000  -0.000000
   11  C  3  S    0.000000   0.000000  -0.000000  -0.000000  -0.000000
   12  C  3  S   -0.000000  -0.000004   0.000000   0.000000   0.000000
   13  C  3  X    0.000000   0.000001  -0.000000  -0.000000  -0.000000
   14  C  3  Y    0.000000   0.000002  -0.000000  -0.000000  -0.000000
   15  C  3  Z   -0.000000  -0.000000   0.000000  -0.000000   0.000000
   16  C  4  S   -0.000000  -0.000004   0.000001  -0.000000  -0.000000
   17  C  4  S    0.000000   0.000037  -0.000005   0.000001   0.000000
   18  C  4  X   -0.000000  -0.000025   0.000003  -0.000000  -0.000000
   19  C  4  Y   -0.000000  -0.000004   0.000000  -0.000000   0.000000
   20  C  4  Z    0.000000   0.000013  -0.000002   0.000000   0.000000
   21  C  5  S   -0.000000  -0.000004   0.000000   0.000000   0.000000
   22  C  5  S    0.000000   0.000031  -0.000003  -0.000002  -0.000001
   23  C  5  X    0.000000   0.000008  -0.000001  -0.000000  -0.000000
   24  C  5  Y   -0.000000  -0.000017   0.000002   0.000001   0.000000
   25  C  5  Z   -0.000000  -0.000011   0.000001   0.000001   0.000000
   26  H  6  S   -0.000000  -0.000057   0.000006   0.000004   0.000001
   27  H  7  S   -0.000000  -0.000008   0.000001   0.000000   0.000001
   28  H  8  S    0.000000   0.000002  -0.000000  -0.000000  -0.000000
   29  H  9  S    0.000000   0.000001  -0.000000  -0.000000  -0.000000
   30  H 10  S   -0.000000  -0.000071   0.000009  -0.000001  -0.000001
   31  H 11  S   -0.000000  -0.000003   0.000000   0.000000  -0.000000
   32  H 12  S    0.000000   0.000002  -0.000000   0.000000   0.000000
   33  H 13  S    0.000000   0.000001  -0.000000  -0.000000   0.000000
   34  H 14  S    0.000000   0.000000  -0.000000  -0.000000  -0.000000
   35  H 15  S    0.000000   0.000000  -0.000000   0.000000  -0.000000
   36  BR16  S    0.994689   0.419627   0.000003   0.000000   0.000000
   37  BR16  S    0.014829  -1.059886  -0.000007  -0.000001  -0.000000
   38  BR16  X    0.000000  -0.000003   0.374589   0.800656   0.452097
   39  BR16  Y    0.000000  -0.000005   0.918409  -0.302261  -0.225658
   40  BR16  Z    0.000000  -0.000000   0.044340  -0.503336   0.854661
   41  BR16  S   -0.073340   2.441895   0.000015   0.000001   0.000000
   42  BR16  X   -0.000000  -0.000000   0.007055   0.015079   0.008514
   43  BR16  Y   -0.000000  -0.000001   0.017296  -0.005692  -0.004250
   44  BR16  Z   -0.000000  -0.000000   0.000835  -0.009479   0.016096
   45  BR16 XX    0.032017  -1.127017  -0.000007  -0.000000  -0.000000
   46  BR16 YY    0.032017  -1.127017  -0.000007  -0.000001  -0.000000
   47  BR16 ZZ    0.032017  -1.127017  -0.000007  -0.000001  -0.000000
   48  BR16 XY    0.000000  -0.000000   0.000000   0.000000   0.000000
   49  BR16 XZ   -0.000000   0.000000   0.000000  -0.000000   0.000000
   50  BR16 YZ   -0.000000  -0.000000   0.000000  -0.000000   0.000000
   51  BR16  S    0.000088   0.017485   0.000000   0.000000   0.000000
   52  BR16  X    0.000000   0.000000  -0.000493  -0.001055  -0.000595
   53  BR16  Y    0.000000   0.000000  -0.001210   0.000398   0.000297
   54  BR16  Z   -0.000000  -0.000000  -0.000058   0.000663  -0.001126

                      6          7          8          9         10
                  -10.9464   -10.9402   -10.9393   -10.9240   -10.9236
                     A          A          A          A          A   
    1  C  1  S   -0.020162  -0.035215   0.991044   0.000018   0.009411
    2  C  1  S   -0.006622  -0.001248   0.037475   0.002175  -0.005192
    3  C  1  X   -0.004236  -0.000075  -0.000021  -0.000581   0.000986
    4  C  1  Y   -0.000295   0.000001  -0.000089  -0.001267   0.003740
    5  C  1  Z    0.000183   0.000028   0.000137  -0.000679   0.001237
    6  C  2  S    0.991431   0.022109   0.021948   0.001309   0.002183
    7  C  2  S    0.037782  -0.004865  -0.005277   0.000050   0.000184
    8  C  2  X   -0.000019  -0.001594   0.004216   0.000084   0.000063
    9  C  2  Y   -0.000086   0.003893   0.000281   0.000104   0.000096
   10  C  2  Z    0.000047   0.001077  -0.000184  -0.000178   0.000042
   11  C  3  S   -0.021889   0.991024   0.034759   0.006147   0.006240
   12  C  3  S   -0.006675   0.037504   0.001409  -0.005321  -0.001924
   13  C  3  X    0.001267  -0.000178   0.000043   0.002929   0.001433
   14  C  3  Y   -0.003939   0.000014  -0.000058   0.002589   0.000814
   15  C  3  Z   -0.001031  -0.000151   0.000009  -0.001000  -0.000181
   16  C  4  S   -0.001258  -0.003236  -0.007932  -0.357052   0.925382
   17  C  4  S    0.000251   0.000128  -0.006103  -0.019038   0.032945
   18  C  4  X   -0.000069  -0.000220  -0.000929  -0.003270  -0.000850
   19  C  4  Y    0.000095  -0.000076  -0.003949   0.002224   0.001086
   20  C  4  Z    0.000099   0.000226  -0.001321  -0.000978  -0.000443
   21  C  5  S   -0.001691  -0.006927  -0.003588   0.925057   0.357906
   22  C  5  S    0.000181  -0.006072  -0.000244   0.037204   0.008083
   23  C  5  X    0.000142  -0.003351  -0.000206  -0.001206   0.003267
   24  C  5  Y   -0.000106  -0.002460  -0.000328   0.001274  -0.001942
   25  C  5  Z   -0.000148   0.000955  -0.000151  -0.000354   0.001016
   26  H  6  S   -0.000116   0.000171  -0.000126  -0.006463  -0.002373
   27  H  7  S    0.000001   0.000096   0.000026  -0.006502  -0.002466
   28  H  8  S    0.000243  -0.006983  -0.000250  -0.000014   0.000019
   29  H  9  S    0.000285  -0.006944  -0.000303   0.000132  -0.000153
   30  H 10  S   -0.000085  -0.000151   0.000172   0.002590  -0.006376
   31  H 11  S    0.000000   0.000047   0.000118   0.002552  -0.006485
   32  H 12  S    0.000265   0.000224  -0.006982   0.000029   0.000013
   33  H 13  S    0.000271   0.000226  -0.006959  -0.000179   0.000003
   34  H 14  S   -0.006985  -0.000024  -0.000034  -0.000113  -0.000043
   35  H 15  S   -0.006994  -0.000073  -0.000013   0.000053  -0.000056
   36  BR16  S   -0.000000   0.000000   0.000000  -0.000000  -0.000000
   37  BR16  S    0.000000  -0.000000  -0.000000   0.000000   0.000001
   38  BR16  X    0.000000  -0.000000  -0.000000   0.000001   0.000000
   39  BR16  Y    0.000000  -0.000000  -0.000000   0.000000   0.000001
   40  BR16  Z   -0.000000   0.000000   0.000000  -0.000000   0.000000
   41  BR16  S    0.000000  -0.000000  -0.000000   0.000002   0.000005
   42  BR16  X   -0.000000   0.000000   0.000000  -0.000002  -0.000002
   43  BR16  Y   -0.000000   0.000000   0.000000  -0.000000  -0.000004
   44  BR16  Z    0.000000  -0.000000  -0.000000   0.000000  -0.000000
   45  BR16 XX   -0.000000   0.000000   0.000000  -0.000001  -0.000003
   46  BR16 YY   -0.000000   0.000000   0.000000  -0.000001  -0.000003
   47  BR16 ZZ   -0.000000   0.000000   0.000000  -0.000001  -0.000003
   48  BR16 XY    0.000000   0.000000   0.000000   0.000000   0.000000
   49  BR16 XZ   -0.000000   0.000000  -0.000000  -0.000000  -0.000000
   50  BR16 YZ   -0.000000   0.000000  -0.000000  -0.000000  -0.000000
   51  BR16  S    0.000000  -0.000001  -0.000001   0.000006   0.000018
   52  BR16  X    0.000000  -0.000001  -0.000000   0.000012   0.000010
   53  BR16  Y    0.000001  -0.000001  -0.000001   0.000001   0.000024
   54  BR16  Z   -0.000000   0.000000   0.000000  -0.000002   0.000000

                     11         12         13         14         15
                   -8.6202    -6.3082    -6.3082    -6.3082    -1.6878
                     A          A          A          A          A   
    1  C  1  S    0.000000   0.000001   0.000000  -0.000000  -0.000000
    2  C  1  S   -0.000005  -0.000012  -0.000001   0.000001   0.000001
    3  C  1  X    0.000002   0.000004   0.000000  -0.000000  -0.000000
    4  C  1  Y    0.000002   0.000005   0.000000  -0.000001  -0.000000
    5  C  1  Z    0.000000   0.000000   0.000001   0.000000   0.000000
    6  C  2  S   -0.000000  -0.000000  -0.000000  -0.000000   0.000000
    7  C  2  S    0.000001   0.000002   0.000001   0.000000  -0.000000
    8  C  2  X   -0.000001  -0.000001  -0.000000   0.000000   0.000000
    9  C  2  Y   -0.000001  -0.000002  -0.000001  -0.000000   0.000000
   10  C  2  Z   -0.000000  -0.000000   0.000000   0.000000   0.000000
   11  C  3  S    0.000000   0.000001   0.000001   0.000000   0.000000
   12  C  3  S   -0.000005  -0.000011  -0.000006  -0.000002   0.000000
   13  C  3  X    0.000001   0.000003   0.000002   0.000001   0.000000
   14  C  3  Y    0.000002   0.000005   0.000002   0.000001  -0.000000
   15  C  3  Z   -0.000000  -0.000001   0.000000  -0.000000   0.000000
   16  C  4  S   -0.000007  -0.000015   0.000001   0.000001   0.000002
   17  C  4  S    0.000049   0.000122  -0.000007  -0.000012  -0.000030
   18  C  4  X   -0.000032  -0.000078   0.000006   0.000006   0.000019
   19  C  4  Y   -0.000005  -0.000009   0.000007  -0.000000   0.000006
   20  C  4  Z    0.000017   0.000042  -0.000002  -0.000002  -0.000010
   21  C  5  S   -0.000006  -0.000010  -0.000007  -0.000002   0.000001
   22  C  5  S    0.000042   0.000084   0.000060   0.000018  -0.000010
   23  C  5  X    0.000010   0.000026   0.000011   0.000005  -0.000002
   24  C  5  Y   -0.000021  -0.000038  -0.000035  -0.000005   0.000005
   25  C  5  Z   -0.000014  -0.000027  -0.000023  -0.000001   0.000003
   26  H  6  S   -0.000079  -0.000164  -0.000124  -0.000026   0.000025
   27  H  7  S   -0.000011  -0.000026  -0.000009  -0.000016   0.000003
   28  H  8  S    0.000002   0.000004   0.000003   0.000001  -0.000001
   29  H  9  S    0.000001   0.000002   0.000001   0.000000  -0.000000
   30  H 10  S   -0.000099  -0.000257   0.000016   0.000021   0.000082
   31  H 11  S   -0.000004  -0.000011  -0.000002   0.000006   0.000001
   32  H 12  S    0.000003   0.000007  -0.000000  -0.000000  -0.000002
   33  H 13  S    0.000001   0.000002   0.000000  -0.000000  -0.000000
   34  H 14  S    0.000000   0.000000   0.000000   0.000000   0.000000
   35  H 15  S    0.000000   0.000000  -0.000000   0.000000   0.000000
   36  BR16  S    0.170498  -0.000008  -0.000001  -0.000000  -0.000000
   37  BR16  S   -0.524838   0.000026   0.000004   0.000001   0.000001
   38  BR16  X   -0.000009  -0.135655  -0.342538  -0.197223   0.000002
   39  BR16  Y   -0.000018  -0.393834   0.099454   0.098158   0.000008
   40  BR16  Z   -0.000000  -0.033522   0.217734  -0.355105   0.000001
   41  BR16  S    2.306239  -0.000116  -0.000018  -0.000003  -0.000003
   42  BR16  X    0.000024   0.346055   0.873810   0.503113  -0.000005
   43  BR16  Y    0.000046   1.004666  -0.253706  -0.250400  -0.000022
   44  BR16  Z    0.000001   0.085513  -0.555437   0.905869  -0.000003
   45  BR16 XX   -0.551498   0.000022   0.000015   0.000007  -0.425746
   46  BR16 YY   -0.551497   0.000044  -0.000004  -0.000006   0.812749
   47  BR16 ZZ   -0.551499   0.000017   0.000002   0.000001  -0.387001
   48  BR16 XY    0.000001   0.000013   0.000011   0.000006   0.534040
   49  BR16 XZ   -0.000000   0.000001  -0.000004   0.000007   0.225281
   50  BR16 YZ    0.000000   0.000002  -0.000009   0.000014   0.054680
   51  BR16  S    0.030310   0.000005   0.000001   0.000000   0.000001
   52  BR16  X    0.000002   0.015231   0.038458   0.022142   0.000000
   53  BR16  Y    0.000005   0.044219  -0.011166  -0.011020   0.000002
   54  BR16  Z    0.000000   0.003764  -0.024446   0.039868   0.000000

                     16         17         18         19         20
                   -1.6878    -1.6878    -1.6878    -1.6878    -0.9866
                     A          A          A          A          A   
    1  C  1  S    0.000000   0.000000  -0.000000  -0.000000  -0.109127
    2  C  1  S   -0.000000  -0.000000   0.000000  -0.000000   0.284312
    3  C  1  X   -0.000000   0.000000   0.000000   0.000000   0.040379
    4  C  1  Y    0.000000   0.000000  -0.000000   0.000000  -0.040721
    5  C  1  Z   -0.000000  -0.000000   0.000000  -0.000000  -0.012993
    6  C  2  S    0.000000   0.000000  -0.000000  -0.000000  -0.114243
    7  C  2  S   -0.000000  -0.000000   0.000000   0.000000   0.299071
    8  C  2  X    0.000000   0.000000  -0.000000  -0.000000  -0.032133
    9  C  2  Y    0.000000   0.000000  -0.000000  -0.000000  -0.047964
   10  C  2  Z   -0.000000  -0.000000   0.000000   0.000000  -0.008204
   11  C  3  S   -0.000000  -0.000000   0.000000   0.000000  -0.111248
   12  C  3  S    0.000001   0.000000  -0.000000  -0.000000   0.289720
   13  C  3  X   -0.000000  -0.000000   0.000000   0.000000  -0.054403
   14  C  3  Y   -0.000000  -0.000000   0.000000   0.000000   0.020050
   15  C  3  Z   -0.000000  -0.000000   0.000000   0.000000   0.016549
   16  C  4  S   -0.000000  -0.000000  -0.000000  -0.000001  -0.100858
   17  C  4  S    0.000002   0.000005   0.000000   0.000007   0.259575
   18  C  4  X   -0.000001  -0.000003  -0.000000  -0.000004   0.054297
   19  C  4  Y   -0.000001  -0.000001  -0.000000  -0.000001   0.023791
   20  C  4  Z    0.000001   0.000001   0.000000   0.000002   0.019186
   21  C  5  S    0.000001   0.000000  -0.000000  -0.000001  -0.101782
   22  C  5  S   -0.000020  -0.000005   0.000003   0.000008   0.261842
   23  C  5  X   -0.000002  -0.000001   0.000000   0.000001   0.003530
   24  C  5  Y    0.000012   0.000002  -0.000002  -0.000005   0.061895
   25  C  5  Z    0.000007   0.000001  -0.000001  -0.000003  -0.014318
   26  H  6  S    0.000053   0.000011  -0.000008  -0.000023   0.043792
   27  H  7  S    0.000003   0.000004  -0.000001  -0.000000   0.051475
   28  H  8  S   -0.000001  -0.000000   0.000000   0.000000   0.059031
   29  H  9  S   -0.000000  -0.000000   0.000000   0.000000   0.054489
   30  H 10  S   -0.000006  -0.000012  -0.000001  -0.000019   0.043139
   31  H 11  S    0.000000  -0.000001   0.000000   0.000000   0.051385
   32  H 12  S    0.000000   0.000000   0.000000   0.000000   0.056568
   33  H 13  S   -0.000000   0.000000   0.000000   0.000000   0.054077
   34  H 14  S   -0.000000  -0.000000   0.000000   0.000000   0.058932
   35  H 15  S   -0.000000  -0.000000   0.000000  -0.000000   0.059909
   36  BR16  S   -0.000000  -0.000000  -0.000000   0.000000  -0.000007
   37  BR16  S    0.000000   0.000000   0.000000  -0.000001   0.000023
   38  BR16  X    0.000007   0.000004  -0.000001  -0.000001   0.000007
   39  BR16  Y   -0.000001  -0.000002   0.000000  -0.000002   0.000010
   40  BR16  Z   -0.000004   0.000007  -0.000001   0.000000  -0.000000
   41  BR16  S   -0.000000  -0.000000  -0.000000   0.000002  -0.000107
   42  BR16  X   -0.000018  -0.000010   0.000001   0.000003  -0.000021
   43  BR16  Y    0.000002   0.000004  -0.000001   0.000005  -0.000030
   44  BR16  Z    0.000010  -0.000017   0.000002  -0.000001   0.000001
   45  BR16 XX    0.470721   0.286625  -0.651835  -0.300200   0.000024
   46  BR16 YY   -0.385771  -0.371339  -0.113797  -0.199446   0.000018
   47  BR16 ZZ   -0.084950   0.084714   0.765632   0.499644   0.000030
   48  BR16 XY    0.702052   0.348573   0.316689  -0.011373  -0.000008
   49  BR16 XZ   -0.121589   0.334593  -0.450361   0.787202   0.000001
   50  BR16 YZ   -0.490507   0.784259   0.119147  -0.356588   0.000000
   51  BR16  S   -0.000000   0.000000   0.000000  -0.000001   0.000187
   52  BR16  X    0.000002   0.000001  -0.000000  -0.000000   0.000060
   53  BR16  Y   -0.000000  -0.000000   0.000000  -0.000000   0.000086
   54  BR16  Z   -0.000001   0.000002  -0.000000   0.000000  -0.000003

                     21         22         23         24         25
                   -0.8278    -0.8238    -0.6407    -0.6363    -0.5300
                     A          A          A          A          A   
    1  C  1  S   -0.146010  -0.034022  -0.064306   0.097930   0.010049
    2  C  1  S    0.416476   0.097687   0.202912  -0.309513  -0.033303
    3  C  1  X   -0.028749   0.091460  -0.140993   0.019614  -0.044633
    4  C  1  Y   -0.012707   0.081727  -0.006995  -0.134208  -0.138760
    5  C  1  Z   -0.006511   0.017502  -0.023940  -0.094936   0.221814
    6  C  2  S   -0.001000  -0.149730   0.100742  -0.050129   0.003832
    7  C  2  S    0.003071   0.429811  -0.318784   0.158881  -0.012828
    8  C  2  X   -0.108132   0.011703  -0.028738   0.139870   0.089795
    9  C  2  Y    0.071620   0.016762  -0.133232  -0.004793  -0.116339
   10  C  2  Z    0.020911   0.001150  -0.063078  -0.055303   0.257131
   11  C  3  S    0.143693  -0.034708  -0.116846  -0.009557  -0.016672
   12  C  3  S   -0.409877   0.099743   0.368772   0.030132   0.055139
   13  C  3  X    0.002013   0.042714   0.126236   0.049156   0.112416
   14  C  3  Y    0.032766   0.116002  -0.046171   0.140013   0.029641
   15  C  3  Z   -0.003789   0.006257  -0.086095  -0.047824   0.232664
   16  C  4  S   -0.080272   0.123506  -0.008250  -0.126004  -0.025712
   17  C  4  S    0.227025  -0.349339   0.025904   0.395316   0.084690
   18  C  4  X   -0.031722  -0.031339  -0.061310  -0.094074  -0.103080
   19  C  4  Y    0.091157   0.052319   0.132828  -0.038774  -0.002675
   20  C  4  Z    0.013677  -0.006133  -0.024871  -0.097095   0.176637
   21  C  5  S    0.080160   0.121782   0.092573   0.086719   0.028142
   22  C  5  S   -0.226414  -0.344469  -0.289768  -0.272113  -0.092294
   23  C  5  X   -0.095679   0.060673   0.093453  -0.113419  -0.019252
   24  C  5  Y   -0.007255  -0.010287   0.075229   0.077233   0.082016
   25  C  5  Z    0.008332   0.012892  -0.056628  -0.073356   0.182099
   26  H  6  S   -0.062362  -0.092146  -0.116026  -0.111846  -0.149092
   27  H  7  S   -0.057203  -0.088608  -0.143352  -0.148433   0.088107
   28  H  8  S   -0.115687   0.026627   0.201149   0.045818  -0.143437
   29  H  9  S   -0.123657   0.033604   0.180610   0.000226   0.178362
   30  H 10  S    0.062322  -0.092180   0.007396   0.162009   0.144614
   31  H 11  S    0.057930  -0.092853   0.030905   0.204962  -0.092877
   32  H 12  S    0.119329   0.027470   0.081629  -0.182659   0.148833
   33  H 13  S    0.124929   0.032344   0.117264  -0.144550  -0.171639
   34  H 14  S    0.001633   0.133566  -0.150789   0.107486  -0.185668
   35  H 15  S   -0.000065   0.130575  -0.181500   0.057072   0.178237
   36  BR16  S   -0.000000   0.000030   0.000050  -0.000022  -0.000012
   37  BR16  S    0.000000  -0.000097  -0.000160   0.000070   0.000039
   38  BR16  X   -0.000005  -0.000027  -0.000045  -0.000010  -0.000022
   39  BR16  Y    0.000003  -0.000039  -0.000043   0.000037   0.000024
   40  BR16  Z   -0.000000   0.000002   0.000000  -0.000004   0.000013
   41  BR16  S   -0.000001   0.000442   0.000732  -0.000324  -0.000178
   42  BR16  X    0.000015   0.000079   0.000134   0.000030   0.000066
   43  BR16  Y   -0.000008   0.000117   0.000129  -0.000110  -0.000073
   44  BR16  Z    0.000001  -0.000005   0.000000   0.000013  -0.000038
   45  BR16 XX    0.000006  -0.000100  -0.000159   0.000085   0.000051
   46  BR16 YY   -0.000007  -0.000087  -0.000164   0.000057   0.000028
   47  BR16 ZZ    0.000001  -0.000110  -0.000169   0.000077   0.000042
   48  BR16 XY    0.000002   0.000014   0.000009   0.000001   0.000003
   49  BR16 XZ   -0.000001  -0.000001  -0.000001  -0.000001  -0.000003
   50  BR16 YZ   -0.000001  -0.000000  -0.000001  -0.000001  -0.000003
   51  BR16  S   -0.000001  -0.000808  -0.001371   0.000598   0.000328
   52  BR16  X   -0.000044  -0.000246  -0.000431  -0.000094  -0.000211
   53  BR16  Y    0.000023  -0.000362  -0.000417   0.000347   0.000229
   54  BR16  Z   -0.000004   0.000014  -0.000001  -0.000045   0.000122

                     26         27         28         29         30
                   -0.5164    -0.4463    -0.4446    -0.4066    -0.3465
                     A          A          A          A          A   
    1  C  1  S    0.001648   0.000373   0.000299  -0.000410  -0.024689
    2  C  1  S   -0.009903  -0.002863   0.000389   0.001599   0.100987
    3  C  1  X   -0.183859   0.048492  -0.060780   0.004754   0.362306
    4  C  1  Y    0.204153  -0.027232  -0.078443   0.000434  -0.194550
    5  C  1  Z    0.026817   0.354609   0.062806  -0.004444   0.022406
    6  C  2  S    0.001452   0.000301   0.000734  -0.000501   0.000207
    7  C  2  S   -0.009914  -0.003537  -0.003115   0.002038  -0.000024
    8  C  2  X    0.167771  -0.025842   0.049968  -0.005123  -0.356287
    9  C  2  Y    0.242379   0.035905   0.026454  -0.007428   0.253799
   10  C  2  Z    0.029932   0.143366  -0.326200   0.000504  -0.063433
   11  C  3  S    0.001315  -0.000333  -0.000927  -0.000439   0.023512
   12  C  3  S   -0.008408   0.000171   0.001458   0.001734  -0.095736
   13  C  3  X    0.267549  -0.053576   0.017618  -0.002482   0.323963
   14  C  3  Y   -0.092839  -0.021918   0.135150   0.002882  -0.260435
   15  C  3  Z   -0.021835  -0.299081  -0.184669   0.004496   0.017701
   16  C  4  S   -0.010911   0.000467   0.001536   0.000930  -0.020664
   17  C  4  S    0.034821  -0.001419  -0.003740  -0.003810   0.078872
   18  C  4  X   -0.239613   0.028517  -0.064568  -0.001769   0.082553
   19  C  4  Y   -0.096560  -0.131156  -0.032657   0.001058   0.059792
   20  C  4  Z   -0.036072   0.048781   0.341328  -0.001614   0.026844
   21  C  5  S   -0.011478   0.003373  -0.002489   0.000901   0.017241
   22  C  5  S    0.036973  -0.010864   0.007815  -0.003633  -0.064878
   23  C  5  X    0.002167  -0.073705  -0.120270   0.002269  -0.048337
   24  C  5  Y   -0.263314  -0.034348   0.011516  -0.001406  -0.067073
   25  C  5  Z    0.005315  -0.279965   0.205807  -0.000794   0.003425
   26  H  6  S    0.172970   0.133173  -0.092615   0.003775   0.023554
   27  H  7  S    0.062709  -0.222878   0.170102  -0.001428  -0.014294
   28  H  8  S    0.060519   0.251561   0.157852  -0.004069   0.008716
   29  H  9  S    0.183298  -0.167343  -0.101332   0.000219   0.325740
   30  H 10  S    0.166911   0.033737   0.168529   0.003470  -0.040402
   31  H 11  S    0.067603  -0.041345  -0.279974   0.000200  -0.001802
   32  H 12  S    0.082504   0.280520   0.059313  -0.004629  -0.068792
   33  H 13  S    0.163382  -0.217939  -0.056426   0.001354  -0.282043
[...]
                   Y -0.00000032 -0.00000024 -0.00000054 -0.00000032  0.00000022
                   Z  0.00000009  0.00000032  0.00000030  0.00000011  0.00000004
               TOTAL  0.00000034  0.00000060  0.00000097  0.00000034  0.00000022

   ROT. SAYVETZ    X  0.00041908  0.00038085  0.00013953  0.00043739  0.00097087
                   Y -0.00014597  0.00012785 -0.00061809  0.00020689  0.00000362
                   Z -0.00016918  0.00035239  0.00086016  0.00002188 -0.00007242
               TOTAL  0.00047493  0.00053439  0.00106835  0.00048435  0.00097357

                           36          37          38          39          40
       FREQUENCY:      1845.33     1847.17     1865.54     3274.11     3593.72  
        SYMMETRY:         A           A           A           A           A   
    REDUCED MASS:      1.12286     1.11196     1.12495     1.09828     1.06376
    IR INTENSITY:      0.04465     0.30337     0.05070    28.69582     0.13730

  1   C            X -0.04157712 -0.02998638  0.04191850  0.00064264 -0.00517842
                   Y  0.00675692  0.01238451 -0.00623963  0.00168445  0.00255824
                   Z  0.01345139  0.01655785 -0.01488399  0.00057069  0.00288726
  2   C            X  0.01353187  0.00446444 -0.00603144 -0.00015254 -0.00678296
                   Y  0.02868827 -0.02807234 -0.04570305  0.00081607 -0.02769165
                   Z  0.02303571 -0.02178549 -0.03622707  0.00085177 -0.01898855
  3   C            X -0.03893561 -0.03994468 -0.04207999  0.00162026  0.05035748
                   Y -0.02614886 -0.01049664 -0.01411912 -0.00024852  0.02208951
                   Z  0.00985473  0.01650461  0.01572703  0.00051289 -0.02084219
  4   C            X  0.02541585 -0.03356069  0.01786565 -0.05356103  0.00049363
                   Y  0.00069800 -0.02197349  0.01146638 -0.06788592 -0.00054885
                   Z  0.01429307 -0.04692130  0.02175065  0.00148057  0.00041555
  5   C            X -0.01992513  0.01018837 -0.00945732  0.00176011 -0.00662108
                   Y  0.04772038 -0.00289594  0.02795029  0.00124193  0.00799400
                   Z  0.00249547  0.00262765  0.00210634  0.00031959  0.00133202
  6   H            X  0.06868766 -0.04245372  0.03441763  0.00293599  0.05010612
                   Y -0.23171937  0.00939662 -0.13573824 -0.00131877 -0.05400278
                   Z  0.21248680 -0.03155513  0.12291991 -0.00080317 -0.09514303
  7   H            X  0.13710985 -0.01592647  0.07436282  0.00226679  0.01147212
                   Y -0.20876307  0.01808402 -0.11902381  0.00682465 -0.05635512
                   Z -0.20443996  0.02156541 -0.11528343 -0.00600506  0.07844477
  8   H            X  0.31736702  0.28910785  0.29604441 -0.00018343 -0.06769789
                   Y  0.04198551  0.01339279  0.01773977 -0.00061348 -0.26723760
                   Z  0.09367720  0.07300023  0.07740562  0.00061813  0.51439972
  9   H            X  0.10954243  0.10572816  0.10663128  0.00070413 -0.50349965
                   Y  0.18631631  0.12260973  0.13382499  0.00528903  0.02246604
                   Z -0.25270399 -0.24696910 -0.25757115  0.00030241 -0.27287308
 10   H            X -0.12034052  0.16704638 -0.08092208  0.52058846 -0.00044590
                   Y  0.05696443 -0.04017980  0.02027957  0.75505606  0.00047399
                   Z -0.20456209  0.51834693 -0.24838754 -0.18518177  0.00038100
 11   H            X -0.12848018  0.24883748 -0.11986698  0.04205934 -0.00039843
                   Y -0.12598464  0.32115710 -0.15144667 -0.03182475  0.00130453
                   Z  0.00218713  0.01131526 -0.00562479  0.15665584 -0.00624477
 12   H            X  0.26736047  0.19407075 -0.25477015  0.00529256  0.02363573
                   Y -0.16370040 -0.14362364  0.15826315  0.00683970  0.02236327
                   Z  0.07852315  0.04903423 -0.07644466 -0.00601897 -0.05251792
 13   H            X  0.18587228  0.12819877 -0.17941769 -0.00143252  0.04445207
                   Y  0.08441040  0.03172345 -0.07805367  0.00279210 -0.04190341
                   Z -0.23914543 -0.21590252  0.23959811  0.00425010  0.02656671
 14   H            X -0.08966172  0.02380451  0.08362052  0.00191121 -0.01238034
                   Y -0.05091541  0.04133574  0.06799255  0.00083842  0.34470684
                   Z -0.25977783  0.24297522  0.38943268  0.00077808 -0.09175856
 15   H            X -0.02790315 -0.01760743  0.00508378  0.00253722  0.07035026
                   Y -0.27823944  0.24655930  0.40169822  0.00162943 -0.02438016
                   Z  0.01044987  0.00361493 -0.00618647 -0.00000168  0.31783802
 16   BR           X  0.00016089 -0.00029393  0.00010776  0.00019127  0.00000241
                   Y  0.00003125 -0.00016047  0.00002200  0.00027063  0.00000203
                   Z  0.00014843 -0.00041251  0.00022211 -0.00011585 -0.00000027

 TRANS. SAYVETZ    X -0.00000004 -0.00000021  0.00000004  0.00000006  0.00000009
                   Y  0.00000045 -0.00000012 -0.00000016  0.00000013 -0.00000017
                   Z  0.00000015 -0.00000016 -0.00000004  0.00000004  0.00000016
               TOTAL  0.00000047  0.00000029  0.00000017  0.00000014  0.00000025

   ROT. SAYVETZ    X  0.00053524 -0.00088252  0.00024301  0.00042587 -0.00000457
                   Y  0.00028417 -0.00081923  0.00032856 -0.00017116 -0.00001724
                   Z -0.00027766  0.00031113 -0.00018678  0.00049108  0.00005734
               TOTAL  0.00066658  0.00124370  0.00044932  0.00067217  0.00006005

                           41          42          43          44          45
       FREQUENCY:      3601.02     3608.36     3613.06     3651.37     3713.30  
        SYMMETRY:         A           A           A           A           A   
    REDUCED MASS:      1.06650     1.06724     1.07003     1.09623     1.11335
    IR INTENSITY:      0.29218     0.30169     0.07091     1.03830     0.05005

  1   C            X -0.02252924 -0.02878436  0.05245854 -0.00210415 -0.00130402
                   Y  0.00811178  0.00820565 -0.01421144 -0.00094330  0.00864975
                   Z  0.00974873  0.01093530 -0.01938540  0.00647465 -0.01176459
  2   C            X -0.00652003  0.00206345 -0.00612567  0.00027938  0.00919881
                   Y -0.04224651  0.00297959 -0.02213179  0.00033744 -0.03750590
                   Z -0.03425010  0.00153438 -0.01794702  0.00083914  0.04280059
  3   C            X -0.02752530 -0.01038998 -0.01285072  0.00049151 -0.03526109
                   Y -0.01005604 -0.00785495 -0.00694352  0.00027771  0.02029135
                   Z  0.01399539  0.00642008  0.00830263 -0.00035067 -0.05711510
  4   C            X  0.00031991  0.00249417 -0.00041910 -0.00742645  0.00031042
                   Y -0.00012749 -0.00185556  0.00218674  0.03248128 -0.00004802
                   Z -0.00012036  0.00049586 -0.00239763 -0.07834916  0.00028167
  5   C            X  0.00876278 -0.02815438 -0.01251882  0.00105380 -0.00287416
                   Y -0.01428093  0.05489743  0.02561288 -0.00099693  0.00129774
                   Z -0.00065215 -0.00259178 -0.00190503  0.00609996  0.01253143
  6   H            X -0.07137685  0.23409584  0.10158761  0.01191189  0.04512125
                   Y  0.07971207 -0.26378018 -0.11564805 -0.01800056 -0.04983073
                   Z  0.13995958 -0.46292677 -0.20251219 -0.02741225 -0.08494579
  7   H            X -0.02167415  0.08616180  0.04060804 -0.00335495 -0.01115147
                   Y  0.09192069 -0.34278146 -0.15892647  0.02557562  0.03720951
                   Z -0.13088547  0.49325026  0.22906999 -0.03683155 -0.05716759
  8   H            X  0.03638616  0.01674800  0.01928212 -0.00083194 -0.05882916
                   Y  0.14948381  0.06350922  0.07664797 -0.00324821 -0.22169484
                   Z -0.28086623 -0.12788032 -0.14748508  0.00580930  0.42037917
  9   H            X  0.25848300  0.09151483  0.10763566 -0.00611462  0.46838633
                   Y -0.01357068 -0.00301746 -0.00488192 -0.00075731 -0.01649889
                   Z  0.13983912  0.05092674  0.05919568 -0.00296540  0.24667701
 10   H            X -0.00107123 -0.00025772  0.00052116 -0.08047084  0.00094884
                   Y -0.00093507  0.00387637  0.00004984 -0.11323596  0.00056826
                   Z -0.00000106  0.00005003 -0.00007264  0.02269688 -0.00024540
 11   H            X -0.00138026  0.00177691  0.00827736  0.15514629 -0.00068474
                   Y  0.00085339  0.00103209 -0.01200769 -0.27882878  0.00107111
                   Z -0.00533337 -0.01024617  0.04472938  0.88060552 -0.00156938
 12   H            X  0.09200496  0.10946579 -0.19439799  0.02381857 -0.04177866
                   Y  0.08919634  0.10736798 -0.19013347  0.02589228 -0.03914940
                   Z -0.20959028 -0.25288289  0.44984821 -0.05522885  0.09661332
 13   H            X  0.17722014  0.21211776 -0.37470226 -0.00289992  0.06030840
                   Y -0.16879301 -0.20398696  0.35969271 -0.00102878 -0.05908529
                   Z  0.10775579  0.12987598 -0.22937233 -0.00109964  0.03616679
 14   H            X -0.02074126  0.00156829 -0.01092016 -0.00011545 -0.01373543
                   Y  0.50946834 -0.03568110  0.25271947 -0.00412343  0.40790494
                   Z -0.13693740  0.00998479 -0.06867236  0.00095234 -0.10342288
 15   H            X  0.11752450 -0.00593926  0.05887427 -0.00296934 -0.09200123
                   Y -0.03969320  0.00290856 -0.02139227  0.00053079  0.02696831
                   Z  0.51032488 -0.03012871  0.26178771 -0.01128237 -0.39459453
 16   BR           X  0.00000131  0.00000195 -0.00001765 -0.00003022 -0.00000271
                   Y  0.00000112 -0.00000844 -0.00002193 -0.00004785 -0.00000464
                   Z  0.00000033  0.00000020  0.00000469  0.00002690  0.00000083

 TRANS. SAYVETZ    X -0.00000003 -0.00000011  0.00000011 -0.00000008 -0.00000002
                   Y  0.00000009 -0.00000002  0.00000023  0.00000005 -0.00000004
                   Z  0.00000019  0.00000002 -0.00000011  0.00000007 -0.00000002
               TOTAL  0.00000022  0.00000012  0.00000027  0.00000011  0.00000004

   ROT. SAYVETZ    X  0.00000209 -0.00003367  0.00005798 -0.00008064 -0.00007983
                   Y  0.00007358  0.00001896 -0.00007910  0.00006204 -0.00000641
                   Z  0.00011911  0.00004966 -0.00014593 -0.00004239  0.00005065
               TOTAL  0.00014002  0.00006292  0.00017582  0.00011022  0.00009475

                           46          47          48
       FREQUENCY:      3719.60     3727.31     3730.74  
        SYMMETRY:         A           A           A   
    REDUCED MASS:      1.11113     1.11029     1.11015
    IR INTENSITY:      0.14506     0.07842     0.43616

  1   C            X  0.00540121 -0.01015987 -0.00769444
                   Y -0.02044617  0.04188749  0.02892193
                   Z  0.02609282 -0.05453296 -0.03683978
  2   C            X -0.01008364 -0.00349656 -0.00426370
                   Y  0.03855921  0.01352677  0.01738976
                   Z -0.04829536 -0.01669499 -0.02040778
  3   C            X -0.02596726  0.00204132 -0.01038015
                   Y  0.01596242 -0.00209050  0.00823024
                   Z -0.04450800  0.00469785 -0.02096019
  4   C            X  0.00067074  0.00015515 -0.00129937
                   Y -0.00035737 -0.00021160  0.00143075
                   Z  0.00205639 -0.00043228 -0.00523477
  5   C            X -0.00429961 -0.00913795  0.01165383
                   Y  0.00000038 -0.00321940  0.00397487
                   Z  0.02181938  0.05445432 -0.06780649
  6   H            X  0.07162000  0.16571742 -0.20518455
                   Y -0.08016825 -0.18712708  0.23132087
                   Z -0.13665107 -0.32067155  0.39782039
  7   H            X -0.02226500 -0.05852220  0.07356668
                   Y  0.07991187  0.22621301 -0.28345796
                   Z -0.11710610 -0.31968260  0.39862621
  8   H            X -0.05059599  0.00664475 -0.02780402
                   Y -0.17645564  0.02443106 -0.09324672
                   Z  0.34065738 -0.04048513  0.17240730
  9   H            X  0.35377481 -0.03088460  0.14950741
                   Y -0.01401264  0.00051462 -0.00563128
                   Z  0.18583219 -0.01708425  0.07989274
 10   H            X  0.00066537  0.00109798 -0.00142849
                   Y  0.00097904 -0.00104563 -0.00205613
                   Z -0.00007449 -0.00088159  0.00057940
 11   H            X -0.00546376 -0.00195894  0.01534463
                   Y  0.00689318  0.00084156 -0.01883787
                   Z -0.02680180  0.00650418  0.06728257
 12   H            X  0.09353727 -0.20186009 -0.13631302
                   Y  0.08669519 -0.18622500 -0.12493552
                   Z -0.21197799  0.45107348  0.30413074
 13   H            X -0.15298305  0.32301447  0.22444321
                   Y  0.14793253 -0.30660683 -0.21252616
                   Z -0.09121660  0.19046472  0.13265933
 14   H            X  0.01680082  0.00392281  0.00584225
                   Y -0.42573294 -0.15503519 -0.19263645
                   Z  0.10814877  0.03845564  0.04873378
 15   H            X  0.10294328  0.03811031  0.04501735
                   Y -0.02759478 -0.00977882 -0.01110872
                   Z  0.45921200  0.16123448  0.19819913
 16   BR           X  0.00000147 -0.00000033 -0.00000386
                   Y  0.00000092 -0.00000314 -0.00000855
                   Z  0.00000005  0.00000005  0.00000721

 TRANS. SAYVETZ    X -0.00000000 -0.00000001  0.00000000
                   Y -0.00000002 -0.00000009 -0.00000006
                   Z -0.00000007 -0.00000005 -0.00000015
               TOTAL  0.00000008  0.00000010  0.00000016

   ROT. SAYVETZ    X  0.00012231  0.00005314  0.00007476
                   Y -0.00007739  0.00010934  0.00000920
                   Z -0.00017006  0.00015020  0.00005011
               TOTAL  0.00022331  0.00019323  0.00009047

 REFERENCE ON SAYVETZ CONDITIONS - A. SAYVETZ, J.CHEM.PHYS., 7, 383-389(1939).

 NOTE - THE MODES J,K ARE ORTHONORMALIZED ACCORDING TO
 SUM ON I   M(I) * (X(I,J)*X(I,K) + Y(I,J)*Y(I,K) + Z(I,J)*Z(I,K)) = DELTA(J,K)

  MODE FREQ(CM**-1)  SYMMETRY  RED. MASS  IR INTENS.
     1       7.660    A        3.337717    0.024734
     2       5.114    A        7.092874    0.076645
     3       0.171    A       10.477442    0.000831
     4       0.073    A        8.544622    0.001312
     5       0.378    A        6.610322    0.005178
     6       0.658    A        5.244826    0.039230
     7      11.359    A        2.068023    0.006301
     8      75.963    A        3.268574    0.012578
     9      88.493    A        2.863567    0.134696
    10     160.401    A        3.246886    0.470672
    11     299.368    A        1.747157    0.191587
    12     658.359    A        1.812143    0.167874
    13     745.591    A        2.942940    0.151473
    14     902.288    A        1.163449    0.012015
    15     980.362    A        1.497980    0.004410
    16    1020.040    A        1.701336    0.084841
    17    1052.231    A        3.595346    0.241119
    18    1091.763    A        1.941520    0.057953
    19    1105.283    A        2.091852    0.015644
    20    1171.295    A        1.226685    0.013886
    21    1203.337    A        1.167245    0.021566
    22    1256.766    A        1.537982    0.019719
    23    1286.470    A        1.754789    0.051837
    24    1450.106    A        1.391416    0.014573
    25    1459.179    A        1.405724    0.047817
    26    1474.231    A        1.436405    0.051576
    27    1519.370    A        1.128877    0.061090
    28    1529.272    A        1.250163    0.192813
    29    1600.496    A        1.307882    0.111220
    30    1608.612    A        1.530023    0.039825
    31    1646.015    A        1.571104    0.009045
    32    1659.989    A        1.604562    0.146132
    33    1698.203    A        1.445746    0.043793
    34    1829.898    A        1.092159    0.026633
    35    1832.110    A        1.082623    0.072249
    36    1845.326    A        1.122865    0.044651
    37    1847.173    A        1.111955    0.303375
    38    1865.535    A        1.124951    0.050703
    39    3274.112    A        1.098285   28.695819
    40    3593.720    A        1.063759    0.137297
    41    3601.016    A        1.066495    0.292184
    42    3608.365    A        1.067242    0.301694
    43    3613.056    A        1.070028    0.070914
    44    3651.374    A        1.096232    1.038297
    45    3713.296    A        1.113348    0.050047
    46    3719.603    A        1.111134    0.145060
    47    3727.313    A        1.110288    0.078423
    48    3730.741    A        1.110149    0.436164

     -------------------------------
     THERMOCHEMISTRY AT T=  298.15 K
     -------------------------------

 USING IDEAL GAS, RIGID ROTOR, HARMONIC NORMAL MODE APPROXIMATIONS.
 P=  1.01325E+05 PASCAL.
 ALL FREQUENCIES ARE SCALED BY   1.00000
 THE MOMENTS OF INERTIA ARE (IN AMU*BOHR**2)
            306.01906          2822.71296          3002.56334
 THE ROTATIONAL SYMMETRY NUMBER IS  1.0
 THE ROTATIONAL CONSTANTS ARE (IN GHZ)
      5.89208     0.63878     0.60052
      7 -     48 VIBRATIONAL MODES ARE USED IN THERMOCHEMISTRY.
 THE HARMONIC ZERO POINT ENERGY IS (SCALED BY   1.000)
        0.169057 HARTREE/MOLECULE    37103.740466 CM**-1/MOLECULE 
      106.085024 KCAL/MOL              443.859740 KJ/MOL

               Q               LN Q
 ELEC.     1.00000E+00       0.000000
 TRANS.    7.14855E+07      18.085005
 ROT.      5.76494E+05      13.264721
 VIB.      4.87535E+02       6.189363
 TOT.      2.00918E+16      37.539089

              E         H         G         CV        CP        S
           KJ/MOL    KJ/MOL    KJ/MOL   J/MOL-K   J/MOL-K   J/MOL-K
 ELEC.      0.000     0.000     0.000     0.000     0.000     0.000
 TRANS.     3.718     6.197   -44.832    12.472    20.786   171.152
 ROT.       3.718     3.718   -32.882    12.472    12.472   122.760
 VIB.     454.476   454.476   428.517    61.717    61.717    87.067
 TOTAL    461.912   464.391   350.803    86.660    94.974   380.979
 VIB. THERMAL CORRECTION E(T)-E(0) = H(T)-H(0) =     10615.864 J/MOL

              E         H         G         CV        CP        S
         KCAL/MOL  KCAL/MOL  KCAL/MOL CAL/MOL-K CAL/MOL-K CAL/MOL-K
 ELEC.      0.000     0.000     0.000     0.000     0.000     0.000
 TRANS.     0.889     1.481   -10.715     2.981     4.968    40.906
 ROT.       0.889     0.889    -7.859     2.981     2.981    29.340
 VIB.     108.622   108.622   102.418    14.751    14.751    20.809
 TOTAL    110.400   110.992    83.844    20.712    22.699    91.056
 VIB. THERMAL CORRECTION E(T)-E(0) = H(T)-H(0) =      2537.252 CAL/MOL
 ......END OF NORMAL COORDINATE ANALYSIS......
 STEP CPU TIME =     0.01 TOTAL CPU TIME =         49.9 (      0.8 MIN)
 TOTAL WALL CLOCK TIME=         50.9 SECONDS, CPU UTILIZATION IS    98.00%
               992052  WORDS OF DYNAMIC MEMORY USED
 EXECUTION OF GAMESS TERMINATED NORMALLY Fri Nov  5 04:18:45 2021
 DDI: 263640 bytes (0.3 MB / 0 MWords) used by master data server.

 ----------------------------------------
 CPU timing information for all processes
 ========================================
 0: 48.906 + 1.11 = 49.918
 ----------------------------------------
 ddikick.x: exited gracefully.
----- accounting info -----
Files used on the master node chemcompute-node-0.novalocal were:
-rw-r--r--. 1 chemcomp chemcomp     1147 Nov  5 04:17 /scratch/301028/335975.F05
-rw-rw-r--. 1 chemcomp chemcomp  7020624 Nov  5 04:18 /scratch/301028/335975.F08
-rw-rw-r--. 1 chemcomp chemcomp 85196800 Nov  5 04:18 /scratch/301028/335975.F10
-rw-rw-r--. 1 chemcomp chemcomp   570624 Nov  5 04:18 /scratch/301028/335975.F18
Fri Nov  5 04:18:48 UTC 2021
0.138u 0.089s 0:54.93 0.3%	0+0k 8+216io 0pf+0w
Finishing Up...
Looking for IR data...
Looking for Raman data...
vibramans not found
Looking for thermodynamics data...
Looking for UV-Vis data...
301028
